LAMMPS (29 Oct 2020)
OMP_NUM_THREADS environment is not set. Defaulting to 1 thread. (src/comm.cpp:94)
  using 1 OpenMP thread(s) per MPI task
units 		real
dimension 	3
processors 	* * *
boundary 	p p p
atom_style 	charge
atom_modify	map array

#pair_style     hybrid/overlay coul/long 10.0 table linear 10000
pair_style     table linear 10000
read_data       tmp.dat
Reading data file ...
  orthogonal box = (-0.42652611 -0.42652611 -0.42652611) to (19.151951 19.151951 19.151951)
  2 by 3 by 4 MPI processor grid
  reading atoms ...
  450 atoms
  reading velocities ...
  450 velocities
  read_data CPU = 0.006 seconds
#pair_coeff     * * coul/long
pair_coeff     2 2 ../ff_fitting.table OO
WARNING: 30 of 8000 force values in table OO are inconsistent with -dE/dr.
  Should only be flagged at inflection points (src/pair_table.cpp:461)
pair_coeff     1 2 ../ff_fitting.table SiO
WARNING: 7 of 8000 force values in table SiO are inconsistent with -dE/dr.
  Should only be flagged at inflection points (src/pair_table.cpp:461)
pair_coeff     1 1 ../ff_fitting.table SiSi
WARNING: 16 of 8000 force values in table SiSi are inconsistent with -dE/dr.
  Should only be flagged at inflection points (src/pair_table.cpp:461)

#kspace_style    pppm 1.0e-5
neighbor        2.0 bin
neigh_modify    every 1 check yes
timestep	1

dump 1 all custom 100000 sim.xyz id type x y z

thermo_style    custom step temp pe press pxx pyy pzz pxy pxz pyz lx ly lz xy yz xz density
thermo          100000

##generate velocity
velocity        all create 3000 14452
#velocity       all scale 0

#NVT run
fix              1 all npt temp 3000 0.01 100 iso 0 0 1000
run              30000000
Neighbor list info ...
  update every 1 steps, delay 10 steps, check yes
  max neighbors/atom: 2000, page size: 100000
  master list distance cutoff = 10
  ghost atom cutoff = 10
  binsize = 5, bins = 4 4 4
  1 neighbor lists, perpetual/occasional/extra = 1 0 0
  (1) pair table, perpetual
      attributes: half, newton on
      pair build: half/bin/atomonly/newton
      stencil: half/bin/3d/newton
      bin: standard
Per MPI rank memory allocation (min/avg/max) = 4.377 | 4.381 | 4.384 Mbytes
Step Temp PotEng Press Pxx Pyy Pzz Pxy Pxz Pyz Lx Ly Lz Xy Yz Xz Density 
       0         3000   -39923.927   -4451.1413   -13714.526    3033.6426   -2672.5402    3774.1349   -1830.1143   -1692.3045    19.578477    19.578477    19.578477            0            0            0    1.9941047 
  100000    2767.1402   -39646.284   -4857.7424   -6071.8345    6026.2641   -14527.657   -3892.4149   -3265.4792   -5076.9987    19.721419    19.721419    19.721419            0            0            0    1.9510581 
  200000    2858.5722   -39480.229    7906.2489    17194.662    3747.2926    2776.7925    724.95268     827.6574   -5187.4727    19.487833    19.487833    19.487833            0            0            0    2.0220602 
  300000    3091.8065   -40138.626   -2381.2936    -820.8393   -4865.1201   -1457.9215   -6088.5719   -3285.5843   -4592.4518    19.434535    19.434535    19.434535            0            0            0     2.038742 
  400000    2947.7117   -40110.894    10049.856     28485.82   -893.74719    2557.4946   -8567.7686   -3112.5141    5052.2601    19.181766    19.181766    19.181766            0            0            0    2.1204056 
  500000    2979.1308   -39765.868    4466.5992    4860.1506    5933.2462    2606.4006   -8311.8499   -9389.0757    6361.0281    19.436172    19.436172    19.436172            0            0            0    2.0382268 
  600000    3236.7689   -39460.749    12026.568    7933.2794    20453.182    7693.2437   -7308.4425   -5636.7402   -3908.3303    19.525321    19.525321    19.525321            0            0            0    2.0104354 
  700000    2969.8622   -39833.442   -6679.8669   -16894.036   -7554.2036    4408.6388     5410.597   -9399.0984   -2836.3483    19.446889    19.446889    19.446889            0            0            0    2.0348587 
  800000    3021.6037   -39639.986    16622.134    11230.956    27987.695    10647.751   -7159.0036    3278.6437    8569.7705    19.513699    19.513699    19.513699            0            0            0    2.0140299 
  900000    2771.0482   -40125.343   -23706.459   -20315.095   -29358.437   -21445.845    2464.8689   -2816.2324   -736.63895    19.670512    19.670512    19.670512            0            0            0    1.9662453 
 1000000    2693.1297   -40100.811   -6969.4888    3095.4131   -13490.628   -10513.252   -4793.0945   -4400.2447   -8137.5772    19.550681    19.550681    19.550681            0            0            0    2.0026224 
 1100000    2941.7143   -40221.337   -1018.6998    5216.9074     1911.607   -10184.614   -3064.9342   -10182.636   -8950.5148    19.331706    19.331706    19.331706            0            0            0    2.0714487 
 1200000    2808.5387   -40186.141   -481.43137    803.41444    3343.5339   -5591.2425   -6641.7951    2702.3631    1144.8169    19.583503    19.583503    19.583503            0            0            0    1.9925698 
 1300000    2932.1526   -40222.374    4434.8251    9401.9538    7662.8827   -3760.3613   -8700.0569    10478.112    699.61046    19.518952    19.518952    19.518952            0            0            0    2.0124041 
 1400000    2866.5539   -39999.946    10740.772    13784.183     11274.69    7163.4439    12070.344   -1561.7143    1359.6058    19.424292    19.424292    19.424292            0            0            0    2.0419687 
 1500000    2789.8674   -40301.496    7451.2557    9284.0685    6179.4961    6890.2025    3415.9586    536.33431   -1037.6979    19.391604    19.391604    19.391604            0            0            0    2.0523125 
 1600000    2651.0226    -39924.41    1742.6671   -2297.2301    10126.505   -2601.2732   -4639.0481     3667.141   -3784.4761    19.488614    19.488614    19.488614            0            0            0    2.0218168 
 1700000    2673.4436   -40293.265   -11458.409   -7853.0633   -8155.3884   -18366.775    1742.1801   -6.1353304   -4506.7802    19.701773    19.701773    19.701773            0            0            0    1.9569005 
 1800000    2946.8812   -40363.079    8234.1434    18514.338   -1175.0345    7363.1263   -8361.9328   -8445.0473   -15253.385    19.081873    19.081873    19.081873            0            0            0    2.1538811 
 1900000    2764.6694   -40279.026    5881.0966    6415.7381    14870.306   -3642.7541    7358.3639    7303.8143    1204.0693    19.342437    19.342437    19.342437            0            0            0    2.0680028 
 2000000    2852.7624   -40512.694   -1082.7281    -9034.611    1343.6551    4442.7717   -3835.0318   -429.10978    4343.3202    19.385404    19.385404    19.385404            0            0            0    2.0542822 
 2100000    2813.0849   -40542.475    2981.8807    9545.0171    3634.0677   -4233.4428   -1030.9504    5787.6449    4498.4029    19.387808    19.387808    19.387808            0            0            0    2.0535181 
 2200000    2696.0489   -40300.794    7563.3187    6219.7901    15067.025    1403.1411    1644.8503   -4249.9455   -10485.249    19.521224    19.521224    19.521224            0            0            0    2.0117015 
 2300000    2773.8664   -40670.086   -184.27351   -578.36178   -6604.5454    6630.0866    7178.8278   -2563.4675    2505.4629     19.26326     19.26326     19.26326            0            0            0    2.0936077 
 2400000    2753.3455   -40173.675    2986.5964   -4296.9906    1404.7603    11852.019   -7155.2184    7508.9414    3574.2486     19.65123     19.65123     19.65123            0            0            0     1.972039 
 2500000    2855.4028   -40519.183   -475.77042   -5483.0681   -6553.7128     10609.47   -3158.4082     14493.05    2321.0249    19.491294    19.491294    19.491294            0            0            0    2.0209831 
 2600000    2714.5605   -40618.779   -5610.3824   -6999.1661   -7567.7488   -2264.2322   -18421.563   -2057.0097    2467.0651    19.134557    19.134557    19.134557            0            0            0    2.1361388 
 2700000    2686.6456   -40118.675   -10325.433   -13526.585   -12351.582   -5098.1328   -1662.3323    2239.2166   -14085.727     19.45976     19.45976     19.45976            0            0            0     2.030824 
 2800000    2539.1692   -40814.604   -27.668848    4765.8042    2792.9942    -7641.805   -1950.0072    842.51107   -4270.0133    19.105603    19.105603    19.105603            0            0            0    2.1458654 
 2900000    2763.9112   -40817.336     1460.246    13837.091   -4438.7298   -5017.6228   -3519.5323    5277.4411   -2759.1367    19.261589    19.261589    19.261589            0            0            0    2.0941526 
 3000000     2822.726   -40920.323   -1299.1646    -4969.229    3581.9103   -2510.1751    6696.4825    2274.2568   -4817.8008    19.276767    19.276767    19.276767            0            0            0      2.08921 
 3100000    2633.7491   -40740.514    4045.2006    3039.0289    7344.5667    1752.0061   -10112.926   -9468.5321    -3183.258     19.34114     19.34114     19.34114            0            0            0    2.0684189 
 3200000    2560.0086   -40998.326   -21500.323   -26886.569   -15164.472   -22449.928   -8746.1278    7484.3331   -5741.5747    18.884191    18.884191    18.884191            0            0            0    2.2222326 
 3300000    2640.9468   -40697.435   -2170.2767    6979.4067   -5227.3621   -8262.8749   -2041.5113    92.024923   -2248.6097    19.435612    19.435612    19.435612            0            0            0    2.0384029 
 3400000    2760.7574    -40714.93    4687.1476   -5349.7129     14818.46     4592.696    14691.556   -6940.9513   -5087.9571     19.20886     19.20886     19.20886            0            0            0    2.1114456 
 3500000    2607.9761   -41083.054    3632.4117   -2049.9792    14125.445   -1178.2312   -1790.9082    1605.4435    3566.7672    19.272511    19.272511    19.272511            0            0            0    2.0905943 
 3600000    2580.8515   -40989.155    485.40253    -4084.147    -2940.447    8480.8016   -5294.3735    3324.4001   -491.88632    19.435359    19.435359    19.435359            0            0            0    2.0384826 
 3700000    2546.8932   -40913.155   -4919.1449    10561.718   -4706.7229    -20612.43   -4617.4704    1162.2285    4144.3262    19.210784    19.210784    19.210784            0            0            0    2.1108114 
 3800000    2619.4062   -41074.454   -2707.9139   -6818.9367    32.163068    -1336.968   -5692.7001    2467.9128    377.00391    19.259697    19.259697    19.259697            0            0            0    2.0947701 
 3900000    2690.7717   -40720.958    6954.6615    5378.1975   -1852.1773    17337.964    6378.6027   -2439.6497    2024.7813    19.123769    19.123769    19.123769            0            0            0    2.1397559 
 4000000    2440.3358   -41228.654     2266.611    11241.165    578.98288   -5020.3148    7005.7894    7613.2797   -5722.8439    19.215004    19.215004    19.215004            0            0            0     2.109421 
 4100000     2559.758   -41235.123   -5400.4815   -9346.3189    938.51201   -7793.6375    6626.8492   -4490.4624   -3813.4125    19.223917    19.223917    19.223917            0            0            0    2.1064884 
 4200000    2613.7517   -41000.595     1888.166   -4367.8715    6207.4733    3824.8962    1230.2844   -12489.565    12568.616    19.287571    19.287571    19.287571            0            0            0    2.0857013 
 4300000    2579.7215   -40961.419   -3020.2837   -766.16346   -1070.3429   -7224.3447    886.55071    6255.1353   -8121.2337    19.065068    19.065068    19.065068            0            0            0    2.1595815 
 4400000    2713.3204   -41187.582   -1540.1905   -5475.7068    2030.0839   -1174.9485   -9948.4063   -1120.5528   -5409.4291    19.337785    19.337785    19.337785            0            0            0    2.0694955 
 4500000     2374.564   -41550.619   -8542.1742   -6606.4204   -4447.3729   -14572.729    10928.389   -2115.0726    1776.7963    18.998311    18.998311    18.998311            0            0            0    2.1824271 
 4600000    2531.0075   -41230.514   -4697.3559   -10528.571   -3025.6896   -537.80748   -4064.2725   -2642.0088   -453.05296    19.145125    19.145125    19.145125            0            0            0    2.1326034 
 4700000    2511.6558   -41174.427    2346.2404   -1681.3242    2483.4654      6236.58   -2722.2498   -118.65847    3409.0292    19.118507    19.118507    19.118507            0            0            0    2.1415232 
 4800000    2486.1408    -41534.59   -1965.5055    3769.3136   -188.58366   -9477.2464    3213.9327    7821.1279   -842.60165    19.265026    19.265026    19.265026            0            0            0    2.0930321 
 4900000    2434.1691     -41344.5   -15294.699   -22327.629   -2867.5542   -20688.915    9084.6571    874.46454    2755.3541    19.251262    19.251262    19.251262            0            0            0    2.0975248 
 5000000    2626.6455   -41349.111   -8383.6505   -13418.643   -2702.2148   -9030.0934    2669.4201   -13541.989    9635.6395    19.172933    19.172933    19.172933            0            0            0    2.1233374 
 5100000    2577.5527   -41519.164    13734.887    17013.256    17941.538    6249.8676   -5532.1261   -1789.9691   -858.87014       19.002       19.002       19.002            0            0            0    2.1811561 
 5200000    2401.7433   -41658.618    7388.8854    9205.0008   -4302.3778    17264.033   -348.83696   -1391.6689   -990.34399    19.100158    19.100158    19.100158            0            0            0    2.1477011 
 5300000    2350.2176   -41522.345   -12319.275   -14504.597   -12570.109   -9883.1194   -2997.9477   -3218.8213    8105.5874    19.158486    19.158486    19.158486            0            0            0    2.1281446 
 5400000    2459.0146   -41616.564    4957.4118    8960.6053    10129.136   -4217.5053    523.18181   -9738.6643    5874.4453    19.148786    19.148786    19.148786            0            0            0    2.1313805 
 5500000    2533.7873   -41419.529    2060.9458   -1073.7145   -2089.0912    9345.6431   -12135.205   -13139.794    8213.7959    19.120308    19.120308    19.120308            0            0            0     2.140918 
 5600000    2353.5873   -41478.555    -2917.205     459.5871   -5823.2018   -3388.0004    8405.6154    345.21847   -5399.7798    18.980216    18.980216    18.980216            0            0            0    2.1886749 
 5700000    2357.6206   -41565.089    1715.3069    11239.529   -2437.7751   -3655.8333   -1594.1586   -6043.1314   -5467.7582    19.231119    19.231119    19.231119            0            0            0    2.1041226 
 5800000    2560.0527    -41663.11    10537.488    585.57666    14034.114    16992.772    8716.4042    606.60066   -6711.7361    18.988061    18.988061    18.988061            0            0            0    2.1859631 
 5900000    2344.6354   -41621.666   -13661.775   -14345.675   -12894.331   -13745.317    2580.3911   -1230.1836   -1390.4834    19.351227    19.351227    19.351227            0            0            0    2.0651861 
 6000000    2531.7473   -41861.481    21119.544    19985.006    21453.989    21919.639   -4491.7673    -103.5169    -8981.944    18.983126    18.983126    18.983126            0            0            0    2.1876685 
 6100000    2414.2521   -41795.286   -7590.1343   -6592.5319   -7663.3123   -8514.5588   -11452.907    9590.2478   -800.98675    19.009084    19.009084    19.009084            0            0            0    2.1787184 
 6200000    2238.9519   -42129.856   -8442.8862   -14660.402    -4283.749   -6384.5079   -1226.2784   -95.034929    -4980.988    19.079444    19.079444    19.079444            0            0            0    2.1547036 
 6300000    2344.8311   -41791.179   -6748.3686   -19493.327   -3225.9541    2474.1752   -3577.5128     12186.23    7262.1869    19.060311    19.060311    19.060311            0            0            0    2.1611989 
 6400000    2193.1522   -41875.266   -1050.4027   -4597.5166    -13196.73    14643.038   -5679.3391    4436.2085    850.21153    18.952866    18.952866    18.952866            0            0            0    2.1981637 
 6500000    2339.7804   -41587.256   -3336.5105   -9415.6256    722.10305   -1316.0088    1389.6641   -131.49269   -6768.0295    19.493109    19.493109    19.493109            0            0            0    2.0204186 
 6600000    2335.4198   -42027.052   -4807.1494    144.40074   -5555.1703   -9010.6786   -296.51875   -441.93058   -11514.686    19.112098    19.112098    19.112098            0            0            0    2.1436784 
 6700000    2330.7018    -42148.31   -5725.1495   -18159.756   -5588.0534    6572.3613    126.21035     -3591.83   -3032.1181    19.177231    19.177231    19.177231            0            0            0    2.1219104 
 6800000    2402.2845   -41914.452    -5425.497   -7531.5271   -4736.8271   -4008.1368   -661.17366   -1769.7747   -2400.7929     19.21096     19.21096     19.21096            0            0            0    2.1107535 
 6900000    2400.2028   -42117.544    13297.872    18911.215    7693.6233    13288.778   -9400.8543    477.73127     981.9867    18.876899    18.876899    18.876899            0            0            0    2.2248091 
 7000000    2257.8845   -42169.033    722.40578   -617.17593     7574.202   -4789.8088   -10239.454    -3826.561   -2795.8073    18.777279    18.777279    18.777279            0            0            0    2.2604075 
 7100000    2228.1128   -42330.485    1467.6369    992.42496    1063.4455    2347.0404    1531.1831   -4800.8719    1115.6733    18.981033    18.981033    18.981033            0            0            0    2.1883921 
 7200000    2320.6821   -41871.503    2649.7033    9319.9357   -155.54535   -1215.2806    1030.6473    6554.9276   -9934.6569    19.277366    19.277366    19.277366            0            0            0    2.0890154 
 7300000    2242.9751   -42481.925   -6544.7855     6332.841   -11858.329   -14108.868    5664.5781    582.51264    5172.9375    19.103129    19.103129    19.103129            0            0            0    2.1466992 
 7400000    2218.9897   -42441.594   -3461.1024   -3417.3475   -609.94143   -6356.0183   -5508.4653   -502.69709    6254.1901    19.048244    19.048244    19.048244            0            0            0    2.1653088 
 7500000     2412.465   -42131.935   -3666.5551   -11794.877    2782.5468   -1987.3356    401.06482     2073.862    6576.5581    19.091174    19.091174    19.091174            0            0            0    2.1507343 
 7600000    2328.9489   -42629.268    7042.4345    750.82834    6204.9032    14171.572   -1765.9739   -4845.2665   -6572.4575    18.948162    18.948162    18.948162            0            0            0    2.1998011 
 7700000     2304.569   -42212.984   -7647.0941   -11339.304    5548.8896   -17150.868   -6511.8466   -5791.9989   -6731.8818     19.19508     19.19508     19.19508            0            0            0    2.1159965 
 7800000    2332.3374   -42199.673    2872.0488    6223.5338   -10214.795    12607.408    -406.7049    8893.9931   -6517.7965    18.972034    18.972034    18.972034            0            0            0    2.1915077 
 7900000    2244.7696   -42333.883    128.12631    4797.1586   -8705.2139    4292.4342    1622.4348   -2549.2962    7282.8767    19.104463    19.104463    19.104463            0            0            0    2.1462493 
 8000000    2216.6339   -42439.827   -2309.6286   -1025.9616   -11042.074    5139.1497   -3170.2244   -8111.8131   -3406.7162     18.96733     18.96733     18.96733            0            0            0    2.1931386 
 8100000    2035.6485   -42140.144   -8580.6726    -11843.57   -1008.3683   -12890.079   -6624.2368   -3566.4957    1511.4918    19.025019    19.025019    19.025019            0            0            0    2.1732487 
 8200000    2100.1031   -42402.304   -5724.6476    5593.5116   -7193.5143    -15573.94    5222.8117     8436.711    9481.7803    18.945579    18.945579    18.945579            0            0            0    2.2007011 
 8300000    2131.2538   -42560.494   -1481.8064    1231.7853   -13474.713    7797.5081    4596.3445   -4931.8619     1969.406    18.975704    18.975704    18.975704            0            0            0    2.1902365 
 8400000    2101.1075   -42654.757     4158.304    12538.257   -2523.3468    2460.0017   -2847.3595    3024.1313    4825.5486     18.96621     18.96621     18.96621            0            0            0    2.1935271 
 8500000    2260.9489   -42536.082   -9196.6169   -18957.772    5234.9917   -13867.071   -4733.2968   -4333.3609    4992.2129    19.107137    19.107137    19.107137            0            0            0    2.1453483 
 8600000    2203.3475   -42177.254   -562.87719    3411.3055   -7598.8172    2498.8802    5982.2587   -8861.7378    11056.036    18.931451    18.931451    18.931451            0            0            0    2.2056316 
 8700000    2076.8992   -42541.468    1200.7771   -2328.9878    4186.0106    1745.3085   -612.86158    1273.2001   -1421.3562     19.07598     19.07598     19.07598            0            0            0    2.1558776 
 8800000    2221.0088   -42733.704    -15569.24   -13673.017   -15968.758   -17065.946   -5790.7317   -3826.5946    3817.1554    19.248586    19.248586    19.248586            0            0            0    2.0983997 
 8900000    2163.3037   -42600.247   -6147.9612   -11295.679    1855.9468   -9004.1511   -6660.2798     -4548.31   -999.06373    18.858143    18.858143    18.858143            0            0            0    2.2314539 
 9000000    2080.9012   -42358.171    -783.3224   -881.08559     4540.624   -6009.5056   -2814.9289   -5715.1072    1494.0395     19.32407     19.32407     19.32407            0            0            0    2.0739052 
 9100000    2070.8184   -42722.532    8712.7188    5333.2771    9347.3968    11457.482    1118.7396   -8016.5789    5717.8741    18.785305    18.785305    18.785305            0            0            0    2.2575114 
 9200000    1956.5888   -42507.781     2657.077    3186.0579    6881.2712    -2096.098   -2693.5431   -3303.5614    1243.4281    19.082667    19.082667    19.082667            0            0            0    2.1536122 
 9300000     2089.921   -42805.021   -8064.0447   -9475.6088    -5472.585   -9243.9402    2199.8281   -5871.3795   -4132.6476    19.142443    19.142443    19.142443            0            0            0    2.1334998 
 9400000    2062.3407    -42799.56   -5392.1776   -8179.9933   -4353.5629   -3642.9765   -2719.3415    2593.3566    9215.5361    18.940829    18.940829    18.940829            0            0            0    2.2023573 
 9500000    2209.8264   -42953.993    2168.5704    1001.0033    -4818.729    10323.437   -13940.184   -2300.3115   -3836.0355    19.088979    19.088979    19.088979            0            0            0    2.1514763 
 9600000    2020.8859   -42724.156    2895.2147    2275.5274   -568.48659    6978.6031     3782.293    -2717.556   -3174.3347    19.125238    19.125238    19.125238            0            0            0    2.1392627 
 9700000    2104.8881   -42933.615    5169.3702    4887.2672   -1361.1834    11982.027   -8031.1201   -4790.1919    1283.3862    18.810336    18.810336    18.810336            0            0            0    2.2485111 
 9800000    1937.3356   -42995.757   -10055.899    -11322.34    -8169.624   -10675.734    2802.8739    1417.9654    -2983.394    18.982034    18.982034    18.982034            0            0            0     2.188046 
 9900000    1976.2429   -43029.508   -5856.7799    7658.3855   -11357.514   -13871.211   -1415.3498   -3201.8745   -8408.8167    19.201401    19.201401    19.201401            0            0            0    2.1139074 
10000000    2056.6066   -43072.565   -3802.5825   -1043.7867   -7464.1756   -2899.7853   -2092.7328    47.331261    -1108.949    18.915237    18.915237    18.915237            0            0            0    2.2113085 
10100000    1928.8056   -42985.526   -6778.7834   -5989.9192   -5085.4168   -9261.0141    7795.6763   -3668.2556    2708.1416    19.126741    19.126741    19.126741            0            0            0    2.1387585 
10200000    1928.3101   -43099.969   -1252.9536   -5396.3213   -1815.5627    3453.0231   -7658.9002    5994.9329   -6216.1248    18.809912    18.809912    18.809912            0            0            0    2.2486632 
10300000    2013.6554   -43038.961    8811.7475    6996.8125    19588.397   -149.96701     2571.369   -5998.6102    3195.8974    19.000349    19.000349    19.000349            0            0            0    2.1817248 
10400000    1926.4892   -43151.778    3126.5702     870.6052    7882.8543    626.25124   -5782.1086    9591.8093   -1669.5617    18.893195    18.893195    18.893195            0            0            0     2.219057 
10500000     1944.229   -43125.909   -5810.4656    -8742.707   -12419.119    3730.4292   -2738.6904    3113.3821   -225.10774     19.12969     19.12969     19.12969            0            0            0    2.1377696 
10600000    1987.1679   -43322.544    6823.9309    12656.521    13770.008   -5954.7357    4073.1622     945.7398    4706.1613    18.787471    18.787471    18.787471            0            0            0    2.2567305 
10700000    1832.3062   -43576.786   -5053.3652   -813.65482   -10104.088    -4242.353    1775.6318    2927.0845   -10044.529    18.906946    18.906946    18.906946            0            0            0    2.2142188 
10800000    1892.9505   -43213.348    1060.3443    11968.435   -5646.8343   -3140.5684    6370.0767   -271.21843   -1599.0858    19.018304    19.018304    19.018304            0            0            0    2.1755513 
10900000     1847.726   -43215.861    9492.5046    12788.396    5525.2262    10163.891   -4718.3133   -8347.6565   -4273.5024    18.828162    18.828162    18.828162            0            0            0    2.2421308 
11000000    1870.1555   -43274.869    12852.672   -5568.5791    19234.444    24892.153   -4669.8691   -3438.3929    -8662.969    19.014877    19.014877    19.014877            0            0            0     2.176728 
11100000    1840.3862   -43416.765   -1035.4759    -8769.785   -1830.5439    7493.9013    2691.6603    6107.1377    3240.1224    18.823666    18.823666    18.823666            0            0            0    2.2437375 
11200000    1743.1399   -43490.825   -5364.4554   -11781.841    2394.5666    -6706.092   -3649.0427    1558.2315    4848.3661    19.123932    19.123932    19.123932            0            0            0    2.1397011 
11300000    1775.4973   -43414.879    13556.587    8885.6774    21671.398    10112.684   -4384.9249   -6201.0601   -6102.2431    18.857115    18.857115    18.857115            0            0            0     2.231819 
11400000    1880.5467   -43410.688    -9048.651   -5933.2023   -7606.5839   -13606.167   -4466.6618    4280.6742   -4263.2359    19.003646    19.003646    19.003646            0            0            0    2.1805894 
11500000    1866.6835   -43656.507   -2749.8037   -776.24189   -5489.9216   -1983.2476   -612.95469    1235.5057   -813.12481    19.066435    19.066435    19.066435            0            0            0    2.1591171 
11600000    1873.2563   -43288.524   -8367.3037   -4909.9623   -17658.242   -2533.7066    54.135153    -3360.914    -9897.568    19.135745    19.135745    19.135745            0            0            0     2.135741 
11700000    1791.4482   -43348.682   -12039.383    1327.0267   -22937.211   -14507.965   -3224.3883     3853.738   -2024.1184    19.151792    19.151792    19.151792            0            0            0    2.1303768 
11800000    1824.9709   -43575.283   -3350.8604    937.81074   -13938.534    2948.1419   -578.49665     1950.642    678.98511    19.078376    19.078376    19.078376            0            0            0    2.1550656 
11900000    1865.3471   -43361.382    -8144.742    2290.7251   -18036.447   -8688.5046    1192.9693    6831.6355    7342.8237    18.959621    18.959621    18.959621            0            0            0    2.1958149 
12000000    1741.9365   -43604.161   -1017.9496    1551.9522   -8425.8155    3820.0145   -6040.6918    -8989.137   -4002.4088    18.848614    18.848614    18.848614            0            0            0    2.2348402 
12100000    1771.0515   -43314.964    2894.8262     8298.998    8934.3601   -8548.8797   -1148.3265   -875.10421    9534.8149    18.760962    18.760962    18.760962            0            0            0    2.2663103 
12200000    1656.8295   -43372.589    1412.6088   -5200.3646   -4699.7963    14137.987   -4447.8626    2714.7349    4176.0847    18.807496    18.807496    18.807496            0            0            0      2.24953 
12300000    1634.6748   -43591.233    2266.7871    8175.9837    368.93006   -1744.5523    13106.242   -8661.4816    3904.9018    18.789726    18.789726    18.789726            0            0            0    2.2559184 
12400000    1623.0982   -43527.535   -77.194888    10616.231    -9384.816   -1462.9992   -6995.2163   -530.36558    3671.6546    18.715296    18.715296    18.715296            0            0            0    2.2829404 
12500000    1751.9299   -43641.211    6341.6066   -3559.6734    10546.939    12037.555      4885.16   -13715.176     4036.044    18.829382    18.829382    18.829382            0            0            0    2.2416949 
12600000    1657.6625   -43858.508    2433.6495    4630.4972   -148.75599    2819.2073   -7807.1234   -469.21668     531.5745    18.899301    18.899301    18.899301            0            0            0    2.2169069 
12700000    1774.9095   -43880.068    5989.1795    4137.9265    13905.201   -75.589319   -4251.4176    4200.8671   -6364.1515    18.955705    18.955705    18.955705            0            0            0    2.1971762 
12800000    1821.4136   -43737.824     -7594.73   -13917.809   -3081.6078   -5784.7735   -3840.8243    1767.5998   -1945.6067    18.926827    18.926827    18.926827            0            0            0    2.2072486 
12900000    1748.2329   -43811.756    1586.3889   -11084.385    14706.633    1136.9183   -3205.1677    7232.4853    680.09266    18.882408    18.882408    18.882408            0            0            0    2.2228624 
13000000    1676.8545   -43713.123    -6177.573   -11078.623    8155.8567   -15609.952    29.072735    7318.4835    5523.7891    18.908157    18.908157    18.908157            0            0            0    2.2137934 
13100000    1697.1636    -43768.84    -2579.431   -15071.271    2699.7427    4633.2357    4564.8865    8850.2548    5171.6208    18.875332    18.875332    18.875332            0            0            0    2.2253631 
13200000    1641.5239   -43873.404   -14628.919    -18869.57   -14103.446    -10913.74     8336.875   -5804.4868   -4710.5936    18.850322    18.850322    18.850322            0            0            0    2.2342326 
13300000    1676.7998   -43919.016   -1182.4352   -6498.6598    6301.0424   -3349.6883    3450.9327   -1616.5118   -2660.9398    18.980368    18.980368    18.980368            0            0            0    2.1886222 
13400000    1615.2827   -43858.561    3963.3877    1936.2298    4758.2198    5195.7136    1583.5752     1022.688   -3660.7745    18.930948    18.930948    18.930948            0            0            0    2.2058074 
13500000    1584.4537    -43853.84    2875.8054   -4753.8899    10110.285    3271.0211   -6087.2753   -5738.4644    -5011.273    18.827521    18.827521    18.827521            0            0            0    2.2423598 
13600000    1620.8268   -43917.775   -9633.2619   -22793.788   -11430.689    5324.6914    10493.074    -1612.636    7097.9104    18.975525    18.975525    18.975525            0            0            0    2.1902984 
13700000     1596.327   -44064.635   -2140.1443    869.39042   -12333.718    5043.8951   -8878.0483    9993.7106   -1091.3031    18.845392    18.845392    18.845392            0            0            0    2.2359865 
13800000    1603.3208   -43891.387   -2579.9842   -2939.4751    1718.4597   -6518.9373    1755.2803    1740.7688   -3512.3662    18.914785    18.914785    18.914785            0            0            0    2.2114669 
13900000    1701.2601   -44043.842    5537.4639    3641.4979    3665.6142    9305.2797   -1179.7861    4955.5922   -3027.7043    18.847066    18.847066    18.847066            0            0            0    2.2353907 
14000000    1660.3667   -44024.587   -1858.1402   -2042.2058   -1170.0112   -2362.2036    564.92482    4638.9514   -2701.1742    18.858015    18.858015    18.858015            0            0            0    2.2314994 
14100000    1610.8278   -44065.195   -13889.794   -20378.867   -4150.5999   -17139.915   -4473.2172    8476.1027   -3197.6477    18.994005    18.994005    18.994005            0            0            0    2.1839115 
14200000    1603.1663   -44126.168    273.45256     2149.642    -8997.634    7668.3497    1018.6728    302.35232   -3806.4211    18.846893    18.846893    18.846893            0            0            0    2.2354522 
14300000       1639.3   -44133.834   -3740.7941   -2946.7479   -341.87381   -7933.7607   -2403.6081   -4338.8601   -264.14886    18.785647    18.785647    18.785647            0            0            0     2.257388 
14400000    1530.5711   -44068.223   -3279.6249   -4883.5304     634.4166   -5589.7608     5833.056    14126.767   -829.25196    18.750072    18.750072    18.750072            0            0            0    2.2702614 
14500000     1557.406   -44179.421   -3162.7732    1457.8453   -5638.7251   -5307.4396    1357.1202   -1846.9037   -3788.4982    18.749211    18.749211    18.749211            0            0            0    2.2705742 
14600000    1466.3044   -44149.223   -3351.8893    1098.9675    571.48323   -11726.119   -10728.046    834.56099   -3647.5522    18.812127    18.812127    18.812127            0            0            0    2.2478689 
14700000    1571.1789   -44186.591    341.04365    4122.3739    4656.4279   -7755.6708   -646.52346   -1684.7793    3748.7812    18.643038    18.643038    18.643038            0            0            0    2.3095885 
14800000    1556.9685    -44124.86   -8512.5046   -4583.2274   -5106.0578   -15848.229   -9670.0117    2254.6426   -5674.5685    18.867121    18.867121    18.867121            0            0            0    2.2282699 
14900000    1502.9943   -44167.721     5195.707    6037.1328   -659.90632    10209.894    8499.8418    1806.1997   -9193.3352    18.706724    18.706724    18.706724            0            0            0    2.2860804 
15000000    1573.9408   -44255.522   -7323.2904    -673.9781   -8693.7437   -12602.149    -4468.593   -3538.7881   -4770.6237    18.827754    18.827754    18.827754            0            0            0    2.2422764 
15100000    1405.7731   -44240.126    250.63351    6280.9152   -24.751201   -5504.2635   -1019.8365    1750.4169   -7019.6944     18.77519     18.77519     18.77519            0            0            0    2.2611619 
15200000    1565.5091   -44337.003    6710.2525    14235.599    464.91409    5430.2449    4074.5844   -10254.598   -5587.8821    18.770391    18.770391    18.770391            0            0            0    2.2628967 
15300000    1478.8016   -44305.951      -1438.3    -6979.158   -276.15897     2940.417   -1092.4027    7813.5038   -3154.4707    18.684881    18.684881    18.684881            0            0            0    2.2941072 
15400000    1389.8268   -44399.653    1463.1372    13226.384   -2335.7216    -6501.251   -6634.9959   -5067.8515   -2905.7395    18.772427    18.772427    18.772427            0            0            0    2.2621605 
15500000    1330.1699   -44228.738    11685.248    21327.854    5110.5431    8617.3484    2197.1854    80.224663   -1217.5647    18.651216    18.651216    18.651216            0            0            0    2.3065521 
15600000    1407.7409   -44212.865    739.18422    4658.2503   -5404.9365    2964.2389   -9392.5765   -8044.7741   -1522.3112    18.757018    18.757018    18.757018            0            0            0    2.2677404 
15700000    1393.9544   -44427.367   -4369.6274    4470.4476   -1859.8908   -15719.439   -1403.6757   -13125.002    9000.0863     18.90423     18.90423     18.90423            0            0            0    2.2151733 
15800000    1413.5631    -44390.93    -6312.933    4783.9366   -21019.588   -2703.1476   -1212.5938   -395.50626    11957.511    18.728098    18.728098    18.728098            0            0            0    2.2782619 
15900000    1312.5123   -44376.375   -5108.2224   -12524.325   -2008.9756   -791.36648   -1100.8265   -1298.9596   -151.27713    18.836449    18.836449    18.836449            0            0            0    2.2391726 
16000000    1429.1725   -44404.451     6095.371    8595.0255    9150.8973    540.19004    3229.3861   -8493.1343     1364.232    18.740665    18.740665    18.740665            0            0            0    2.2736819 
16100000    1308.1509   -44432.872    4758.4771    11471.598   -9309.8699    12113.703   -4834.9664   -6221.5201    10959.713     18.78031     18.78031     18.78031            0            0            0    2.2593133 
16200000    1426.6463   -44316.207    -8488.089   -4649.2347   -3779.6762   -17035.356    -6544.806   -12063.908    8808.1905    18.882848    18.882848    18.882848            0            0            0     2.222707 
16300000    1370.1346   -44383.602   -10122.954   -8352.7189   -9165.0044   -12851.139    446.94158   -8030.6268    7476.4023    18.799053    18.799053    18.799053            0            0            0     2.252562 
16400000    1351.1296   -44482.971   -5605.1765   -1290.0896   -13070.571   -2454.8691   -7916.4372   -9618.6708    1244.3752    18.800791    18.800791    18.800791            0            0            0    2.2519375 
16500000    1416.7055   -44576.651   -5757.5357    1214.6568   -12327.058   -6160.2061   -77.335865    1389.8818    6888.7949    18.879248    18.879248    18.879248            0            0            0    2.2239786 
16600000    1335.8847   -44516.003    2089.0561   -1863.9111     8179.756     -48.6766   -4587.7364   -4288.0164    3117.0538    18.805926    18.805926    18.805926            0            0            0    2.2500932 
16700000    1353.5377   -44523.324   -619.64528   -487.73596    1765.8239   -3137.0238   -6632.9461   -4301.5349   -1278.8105    18.737759    18.737759    18.737759            0            0            0    2.2747401 
16800000    1245.3751   -44640.157   -1639.5791    10075.385   -6271.4356   -8722.6863   -670.28755   -2145.4226    5299.2187    18.798773    18.798773    18.798773            0            0            0     2.252663 
16900000    1324.8544   -44558.283   -2256.4101   -1912.3105   -921.64695   -3935.2728   -1424.9614     -10213.5    1311.3381    18.782905    18.782905    18.782905            0            0            0    2.2583767 
17000000    1276.4446   -44586.146   -5365.8367     3169.426   -12377.868   -6889.0685    2054.5885   -9601.7713   -776.65763    18.915946    18.915946    18.915946            0            0            0    2.2110598 
17100000    1286.9665   -44675.966    14848.462    21420.814    8267.9331    14856.639   -4581.3897   -3778.4497    2819.0632    18.641437    18.641437    18.641437            0            0            0    2.3101837 
17200000    1279.0448   -44474.917      1774.77    4946.9455    7892.9563   -7515.5917    -6075.398   -3565.8067   -2389.6149    18.721379    18.721379    18.721379            0            0            0    2.2807158 
17300000    1338.7401    -44633.77    6070.1906    2037.4819    1474.0003     14699.09    70.855935    275.26797    7189.0226    18.641639    18.641639    18.641639            0            0            0    2.3101087 
17400000    1212.0012   -44580.945    9101.7912    16116.665    8835.3067    2353.4019   -4790.2526   -5148.6163    2909.3583    18.696936    18.696936    18.696936            0            0            0    2.2896726 
17500000    1311.9341   -44509.478     863.2992    -3938.376    3961.6788    2566.5948   -2650.4457   -4001.6518    251.49634    18.738383    18.738383    18.738383            0            0            0    2.2745127 
17600000    1220.0612   -44710.828    2295.9332     2432.481   -556.77865    5012.0971   -2486.5031   -1647.2264    4770.5181    18.719777    18.719777    18.719777            0            0            0    2.2813014 
17700000    1247.9041   -44778.623   -536.14595    6910.2992     672.2239    -9190.961   -442.89715   -3119.0126    7342.9666    18.719701    18.719701    18.719701            0            0            0    2.2813291 
17800000    1168.5401   -44708.701   -2911.4662     392.1808   -4766.8015   -4359.7779    2093.3325   -7645.7474    3840.9313    18.688461    18.688461    18.688461            0            0            0    2.2927888 
17900000    1193.5895   -44618.357   -880.81949   -2660.9196    13865.276   -13846.815   -3907.3658   -2661.9917    7680.7299    18.801803    18.801803    18.801803            0            0            0    2.2515738 
18000000    1195.0389   -44703.756    717.03544    2220.6676    -3813.411    3743.8497   -736.45032   -10275.658    5133.0553    18.684075    18.684075    18.684075            0            0            0    2.2944039 
18100000    1176.9517   -44677.539   -5257.9748   -3683.4724   -11159.092   -931.35974   -6038.0672   -2617.6785    891.11642    18.796647    18.796647    18.796647            0            0            0    2.2534273 
18200000    1168.3604   -44764.138    4205.1944    9984.3356    13104.703   -10473.455    3257.3595   -4872.2383    4100.2703    18.654042    18.654042    18.654042            0            0            0     2.305504 
18300000    1193.2096   -44748.348    -1895.536   -1830.7013   -5078.2654    1222.3588    3740.6492   -4870.3404    13288.452     18.70827     18.70827     18.70827            0            0            0    2.2855138 
18400000    1204.6425   -44911.428    15557.224    21573.685    15300.594    9797.3931    2712.6266   -12566.806    2644.2835    18.543764    18.543764    18.543764            0            0            0    2.3468808 
18500000    1158.9721   -44768.059   -1167.2082   -283.54761    2755.7748   -5973.8517   -4487.5089   -4763.5295     3205.775    18.788057    18.788057    18.788057            0            0            0    2.2565196 
18600000    1144.3951   -44807.971    2345.1634   -1995.1601    4685.9581     4344.692   -2161.2362   -2424.0312   -4007.7679    18.761359    18.761359    18.761359            0            0            0    2.2661664 
18700000    1139.8414   -44904.147    2588.5735    9485.1752   -1001.6192   -717.83553    -5574.323   -10636.902    12549.052    18.703731    18.703731    18.703731            0            0            0     2.287178 
18800000    1118.1788   -44820.235    1982.5762    5816.6566    907.76847   -776.69646   -6822.6405   -9839.2152    3635.0576    18.729391    18.729391    18.729391            0            0            0    2.2777901 
18900000    1153.4866   -44933.091    27.371681    2210.0648    -1526.989   -600.96072   -7944.3484   -8230.8045    5007.8371    18.786453    18.786453    18.786453            0            0            0    2.2570977 
19000000    1065.2018   -44882.397    3902.1643    14870.818    -9146.435    5982.1099   -1736.4625   -1993.7704    4343.8394    18.749615    18.749615    18.749615            0            0            0    2.2704273 
19100000    1097.1452    -44876.37    928.14943    4384.3497   -3213.2318    1613.3303    2310.8663   -8742.0858    5472.6102    18.761483    18.761483    18.761483            0            0            0    2.2661214 
19200000    1143.6916   -44909.613    3374.8787    1030.0717    4553.2692    4541.2953    4662.5871    -1745.457    6920.7769    18.750696    18.750696    18.750696            0            0            0    2.2700348 
19300000    1055.9626   -44861.367   -3049.6742   -2469.1183   -919.13878   -5760.7656   -10020.727    1175.4677    6523.1539    18.787061    18.787061    18.787061            0            0            0    2.2568784 
19400000    989.91982   -44823.353    424.76042    7733.8725   -1741.1184   -4718.4728    7906.5159   -11378.301    3732.7085    18.729299    18.729299    18.729299            0            0            0    2.2778239 
19500000    1005.5108   -44949.532   -6652.9668    1457.1432   -9810.4669   -11605.577    1224.0352   -1779.1088    3346.1045    18.774835    18.774835    18.774835            0            0            0    2.2612904 
19600000    1007.6785    -44991.42    4020.9201    8731.3425   -2015.6465    5347.0643     797.9541   -7270.3711    2240.3193    18.716243    18.716243    18.716243            0            0            0     2.282594 
19700000    990.09009   -44990.208   -1707.3133    4063.4861   -3237.6265   -5947.7995    1407.4496    -9973.469    1280.4661     18.74969     18.74969     18.74969            0            0            0    2.2704001 
19800000    1040.6656   -44968.218   -1082.8769    1141.0182   -2412.2538    -1977.395   -4414.1783   -11170.499    9503.7687    18.722768    18.722768    18.722768            0            0            0    2.2802082 
19900000    1020.2409   -44979.074    4858.6058    8351.2097    5374.8524    849.75546    1924.4974   -1339.9015     7494.712    18.706816    18.706816    18.706816            0            0            0    2.2860465 
20000000    1018.4888   -44949.122   -6921.7202   -1733.2656   -9849.1482   -9182.7469    3537.9589   -5541.0393    4097.2177    18.822145    18.822145    18.822145            0            0            0    2.2442817 
20100000    1022.1689    -45029.93    717.81685    14170.074   -4411.7466   -7604.8765     1609.315   -7948.5081    4715.7427    18.770669    18.770669    18.770669            0            0            0    2.2627963 
20200000    993.32641   -45029.521    2841.3561    6699.5331    3016.7549   -1192.2197     119.6525   -2983.7144    2920.9414    18.701982    18.701982    18.701982            0            0            0    2.2878196 
20300000    945.33838   -45077.365   -6252.5211     1691.199   -9394.2245   -11054.538   -7497.7416   -9364.5974    449.67009    18.702916    18.702916    18.702916            0            0            0     2.287477 
20400000    989.00122   -45002.841   -4698.8745   -12940.834   -8659.0721    7503.2824   -2686.0375   -4288.9563    4249.0884    18.780926    18.780926    18.780926            0            0            0     2.259091 
20500000    979.11116   -45067.013    4650.7472    11504.547   -979.04835    3426.7427    604.55506   -4945.1463    9063.0435    18.751019    18.751019    18.751019            0            0            0    2.2699175 
20600000    904.51228   -45179.509    10623.356    20973.756    4083.6308    6812.6822    2130.9887   -9092.7885   -1148.9121    18.687484    18.687484    18.687484            0            0            0    2.2931487 
20700000    937.07813   -45141.084    5241.4524    7028.2685    8075.0549    621.03401   -671.64238   -3111.0797    7930.1029    18.678616    18.678616    18.678616            0            0            0    2.2964165 
20800000    962.79906   -45086.439     2234.133    6164.7531    1388.0081   -850.36234    418.49967   -8489.4146   -1817.6524    18.672797    18.672797    18.672797            0            0            0     2.298564 
20900000    909.54171   -45163.071   -1708.7014    -3633.674   -2049.2866    556.85628    289.90361   -1978.8036    9792.7247    18.694855    18.694855    18.694855            0            0            0    2.2904371 
21000000    953.42138   -45118.322   -2076.1362   -5502.5755   -1868.7192    1142.8861   -77.346914   -4592.2895    1547.7717    18.749019    18.749019    18.749019            0            0            0    2.2706442 
21100000    903.92184   -45198.676     7285.643     11807.88    7673.9758    2375.0737   -2263.4631   -14690.544    1511.4775    18.678617    18.678617    18.678617            0            0            0     2.296416 
21200000    912.63241   -45149.512   -2355.9354     3304.043   -1523.5167   -8848.3325   -2434.3068   -5882.0013    3858.2314    18.755611    18.755611    18.755611            0            0            0    2.2682508 
21300000    876.49301   -45130.729    5900.4786    12036.856   -2323.6935    7988.2727    2904.3348   -9522.1231    9523.9127    18.727339    18.727339    18.727339            0            0            0    2.2785391 
21400000    883.63655    -45182.93   -5169.0057   -2845.0335   -2880.4437   -9781.5401    217.90296   -13157.108    4525.1589    18.693588    18.693588    18.693588            0            0            0    2.2909031 
21500000    848.08462   -45271.427    3414.9034    11202.097   -7089.6005    6132.2133     956.3698   -2638.5617    3496.2372    18.688859    18.688859    18.688859            0            0            0    2.2926425 
21600000    889.34763   -45260.468    2962.2534     5749.635    721.21722    2415.9081    1296.4423   -3493.0376    8036.0112     18.70909     18.70909     18.70909            0            0            0    2.2852131 
21700000    862.53013   -45270.814    3650.7802   -7421.9953    9299.3265    9075.0095   -2055.6912   -9070.7525    6790.8066     18.70328     18.70328     18.70328            0            0            0    2.2873434 
21800000    856.21308   -45233.804    665.52342    8022.9852    4330.4915   -10356.906    18.037749   -10101.328    4197.6301    18.721309    18.721309    18.721309            0            0            0    2.2807414 
21900000    811.06318   -45295.045    936.69386     7486.687   -4449.7156   -226.88974    3551.2036   -7975.4411    10281.376    18.729756    18.729756    18.729756            0            0            0    2.2776571 
22000000    820.00307   -45302.334     9432.021    14449.917    6605.2429    7240.9035     3727.653   -9820.2569    5699.7258    18.635226    18.635226    18.635226            0            0            0    2.3124946 
22100000    795.94767   -45400.896    6565.2941    6307.8731    6922.7002    6465.3089   -2634.1593   -8490.6996    217.73826    18.649151    18.649151    18.649151            0            0            0    2.3073181 
22200000    771.64037   -45367.907   -3150.0981      -3917.6   -5006.7785   -525.91564    3384.5647   -3909.2923    7057.6392    18.713606    18.713606    18.713606            0            0            0     2.283559 
22300000    740.31356   -45356.018    3032.4584    677.62063    2706.3412    5713.4133    639.82494   -4354.2876    10852.303    18.694398    18.694398    18.694398            0            0            0    2.2906054 
22400000    789.49913   -45409.511    3400.3503    7551.7288   -3148.2899     5797.612    486.10475   -8527.6316    3309.1905    18.651748    18.651748    18.651748            0            0            0    2.3063545 
22500000    704.95932     -45362.5   -3007.2531    3125.2775   -3646.6362   -8500.4006   -944.66982   -5465.4963    3231.5583    18.704823    18.704823    18.704823            0            0            0    2.2867772 
22600000    742.57222   -45343.831   -290.99503    162.40933    590.16784   -1625.5623    -2814.205   -2610.3558    2182.3455    18.719363    18.719363    18.719363            0            0            0    2.2814529 
22700000    765.26252   -45396.619    2921.1167     5396.397    1116.8326    2250.1204    85.288072   -8691.7358    7618.9612    18.705192    18.705192    18.705192            0            0            0    2.2866421 
22800000    759.00621   -45435.541    12956.995    10691.575    12259.695    15919.716     1570.659   -5913.9853     4437.795    18.687328    18.687328    18.687328            0            0            0    2.2932061 
22900000    711.92246   -45378.455    -11065.06   -9425.2484   -16810.539   -6959.3938   -4071.4079   -6078.4812    3778.4099    18.760438    18.760438    18.760438            0            0            0    2.2665003 
23000000    711.23171   -45345.114   -6217.5405   -5857.8636    -8510.857   -4283.9008    3806.6934   -6861.6391    5398.7084    18.698739    18.698739    18.698739            0            0            0    2.2890104 
23100000    629.94627   -45480.631   -2704.5552    4120.5805    -4972.034    -7262.212     400.4608   -8077.3468    6954.9176    18.681489    18.681489    18.681489            0            0            0     2.295357 
23200000    663.58564   -45446.396   -6315.2399    -4178.229   -11547.074   -3220.4171    -5368.502   -7483.8447     4953.583    18.723305    18.723305    18.723305            0            0            0    2.2800123 
23300000    626.72858   -45486.328    288.95613    2702.4638   -635.65233   -1199.9431   -2827.2158   -9522.0985     12872.85    18.734788    18.734788    18.734788            0            0            0    2.2758223 
23400000      631.351   -45389.326    6103.8262    15960.987    410.71532    1939.7766    1891.4474   -8166.9848    9676.2953    18.655118    18.655118    18.655118            0            0            0    2.3051048 
23500000    641.83033   -45481.614   -2728.6054    967.99187   -8398.6896   -755.11854   -867.47597    -6912.137    4895.5553    18.717405    18.717405    18.717405            0            0            0    2.2821688 
23600000     676.3191   -45546.859   -6955.0751   -2613.6316   -11324.196   -6927.3972    4465.3546   -6797.9235    6601.2099     18.70656     18.70656     18.70656            0            0            0    2.2861405 
23700000    633.90718   -45575.044    4099.5593    6451.2535    5573.0747    274.34984    1822.1175   -11006.307    9430.7891    18.658012    18.658012    18.658012            0            0            0    2.3040324 
23800000    652.32997    -45578.47    5628.1116    10399.187    5318.9578    1166.1896   -3727.5752   -7511.5666    1542.6014    18.670382    18.670382    18.670382            0            0            0    2.2994559 
23900000    582.55611   -45612.029   -214.66631    5986.6121   -3313.3131   -3317.2979   -1239.8624   -12041.543    6574.2283    18.742178    18.742178    18.742178            0            0            0    2.2731313 
24000000    615.80208   -45538.416    4507.6209    6078.7208     3890.069    3554.0729   -2653.5154   -7862.3284    7195.3499    18.668325    18.668325    18.668325            0            0            0    2.3002162 
24100000    544.81444   -45556.772   -1284.3039   -1825.4254   -724.51467   -1302.9716    2184.5872   -3597.3276    3922.4618    18.720595    18.720595    18.720595            0            0            0    2.2810025 
24200000    593.48075   -45625.939   -2257.4308   -2025.1656   -5289.0747    541.94779     316.6405    142.32894    1009.3069    18.706406    18.706406    18.706406            0            0            0    2.2861968 
24300000    558.07478   -45661.593    2660.1213    7133.5946    257.50975    589.25955   -1763.0791   -3575.2819    4841.0867    18.724563    18.724563    18.724563            0            0            0    2.2795526 
24400000    552.54257   -45651.399   -5106.1905   -6235.1952   -2597.1735   -6486.2026   -2780.6727   -2241.9467    4717.5936    18.706611    18.706611    18.706611            0            0            0    2.2861219 
24500000    537.40603   -45690.911   -3483.6458   -4669.9958   -2489.8371   -3291.1045    2394.8126   -13324.234    5909.4936    18.719287    18.719287    18.719287            0            0            0    2.2814805 
24600000    558.30793   -45674.874   -3712.4732   -2691.9893    -5136.149   -3309.2812   -1081.0473   -10458.541    7422.9744    18.743246    18.743246    18.743246            0            0            0    2.2727429 
24700000    520.19679   -45682.333   -162.27567    1523.2758   -4408.1505    2398.0477    70.875255   -10905.611    10022.709    18.707414    18.707414    18.707414            0            0            0    2.2858272 
24800000    492.24435   -45662.709    372.17996   -3966.4639    1493.7146    3589.2891   -2661.3193   -6997.8545    5611.5242    18.695536    18.695536    18.695536            0            0            0     2.290187 
24900000    504.57168   -45674.369   -1616.5022    32.168605   -2721.6771   -2159.9982    1744.4367   -8361.8502    6714.6512    18.738872    18.738872    18.738872            0            0            0    2.2743346 
25000000    496.87663   -45744.168   -2492.8073    1000.4218   -7663.9861   -814.85766    -5602.989   -9241.0098     4977.202    18.763295    18.763295    18.763295            0            0            0     2.265465 
25100000    443.88715   -45779.309    6141.4095     11324.36    4352.1784    2747.6897     328.5187   -5165.9206    10500.712    18.655538    18.655538    18.655538            0            0            0    2.3049493 
25200000    525.90683   -45731.215     2873.282    5943.4607    3670.9285   -994.54316    5500.7844   -8332.2627    6690.2368    18.732802    18.732802    18.732802            0            0            0    2.2765461 
25300000    485.61318    -45805.62   -3734.8081    758.27028   -8418.2188   -3544.4759     3357.014   -5746.6832    7384.6532    18.696099    18.696099    18.696099            0            0            0    2.2899801 
25400000    489.49578   -45790.192   -360.25234   -3603.1518     2260.973    261.42181    1700.6581   -7284.3686    7004.1048    18.696322    18.696322    18.696322            0            0            0    2.2898981 
25500000    441.89038   -45805.781   -2290.1608    3040.3993    -6891.331   -3019.5508   -859.58565   -7524.6345    10553.541     18.71586     18.71586     18.71586            0            0            0    2.2827342 
25600000    451.09279   -45811.989   -4032.6437   -4051.9065   -7072.2746   -973.74992   -1819.5498   -8209.7848    3264.9037    18.679576    18.679576    18.679576            0            0            0    2.2960623 
25700000    430.10466   -45831.129    910.98315    3466.0299   -1198.6597    465.57919   -4321.5219    -3237.179    6466.3865    18.731725    18.731725    18.731725            0            0            0     2.276939 
25800000    389.84728   -45851.675    5547.9282    3011.8135    6314.2947    7317.6764    1747.0936   -7511.7705    3457.4099    18.633675    18.633675    18.633675            0            0            0     2.313072 
25900000    405.97773   -45833.605   -612.85158   -1081.4477    4998.4295   -5755.5366   -23.057824    -7689.193    6953.5299     18.71653     18.71653     18.71653            0            0            0    2.2824891 
26000000    387.34894   -45872.259   -1378.3329    2192.1593   -8432.6823    2105.5242    3200.8657    -3546.693     6665.754    18.735287    18.735287    18.735287            0            0            0    2.2756403 
26100000    389.01536   -45896.511   -7524.2331   -5643.3908   -8527.5644   -8401.7442    1396.0269   -6607.0661    4843.4931    18.703985    18.703985    18.703985            0            0            0    2.2870848 
26200000    397.51349   -45871.404   -267.26763    834.27806   -3013.1459     1377.065    288.89496   -8830.6143     8292.431     18.71562     18.71562     18.71562            0            0            0    2.2828221 
26300000     385.2682   -45957.404    1560.0289    4861.4377   -3172.2172    2990.8663   -4320.1116   -4226.7184    5293.3628    18.679718    18.679718    18.679718            0            0            0      2.29601 
26400000    369.74627   -45931.002    1887.9359    1043.6645    882.01553    3738.1278    602.82694   -10593.175    4435.2791    18.674902    18.674902    18.674902            0            0            0    2.2977866 
26500000    378.94634   -45961.367    4884.8037    6470.2015    3821.0192    4363.1903   -588.87612   -7589.2429    5484.9748    18.653102    18.653102    18.653102            0            0            0    2.3058525 
26600000    345.67116   -45974.412   -1158.0619    2043.2101    1112.9588   -6630.3546    1248.7507   -6431.7981    7673.2218    18.670964    18.670964    18.670964            0            0            0    2.2992407 
26700000    361.41299   -45942.564   -2705.5038   -2252.4467   -5289.5592   -574.50538    100.82376   -7315.5363    5372.5163    18.701278    18.701278    18.701278            0            0            0    2.2880779 
26800000    304.74648   -45998.815    4590.9389    5580.6315    2453.5323    5738.6527   -395.50875    -5433.985    2432.9271    18.655776    18.655776    18.655776            0            0            0     2.304861 
26900000    310.29146   -45961.811   -1767.2825    5609.9732   -7306.2812   -3605.5395   -2803.8208   -3380.3265    6380.7418    18.688644    18.688644    18.688644            0            0            0    2.2927218 
27000000    284.33616   -45995.738   -5815.6729   -875.23055   -9781.3085   -6790.4795      281.804   -9216.0981    3928.5754    18.711581    18.711581    18.711581            0            0            0    2.2843007 
27100000    296.56381   -46036.251   -1549.9107   -2904.8377   -81.647673   -1663.2467     660.0031   -6911.5133    8999.3869    18.682251    18.682251    18.682251            0            0            0    2.2950762 
27200000    285.51758   -46037.193   -4244.0268     1171.826   -5184.6694   -8719.2371   -2323.4684   -7984.1811    8137.2447    18.714427    18.714427    18.714427            0            0            0    2.2832586 
27300000    260.98603   -46037.463    2452.1686    7289.5702    9.0001323    57.935501     -79.2168   -9837.1305    8780.1085    18.692606    18.692606    18.692606            0            0            0     2.291264 
27400000    261.40397   -46054.785    233.39506    4484.3664   -1607.2769   -2176.9044   -1002.0237   -6398.4352    8383.0897    18.682418    18.682418    18.682418            0            0            0    2.2950146 
27500000    259.61353   -46065.159   -5290.9613   -2376.1643   -6969.7383   -6526.9815    981.22901   -6384.5734    4691.4089    18.683984    18.683984    18.683984            0            0            0    2.2944374 
27600000    245.82954   -46075.175    957.99323    5603.1328   -3375.7036    646.55044    223.63843   -6251.9525    8409.0384    18.678504    18.678504    18.678504            0            0            0    2.2964575 
27700000    223.38776   -46093.461      418.099    5949.3845   -5623.1055    928.01804    378.17937   -6859.1617    5955.8586    18.686007    18.686007    18.686007            0            0            0    2.2936923 
27800000    222.68052   -46108.818    1067.1162     6439.847    -5102.336    1863.8375   -2327.6314   -6408.7542    3284.1243    18.663817    18.663817    18.663817            0            0            0    2.3018834 
27900000    228.55609   -46132.922   -5036.1946    -96.13927   -4386.8552   -10625.589    2317.7164   -8973.4885    6235.7166    18.699076    18.699076    18.699076            0            0            0    2.2888865 
28000000    199.71144   -46146.353   -15.277265    3405.0604   -859.41472   -2591.4775   -331.75646   -6410.7528    5121.9257    18.663746    18.663746    18.663746            0            0            0    2.3019096 
28100000    201.31504    -46160.41   -2824.2625    347.01416   -6262.8179   -2556.9838    220.02663   -7533.5952    6171.5826    18.710064    18.710064    18.710064            0            0            0    2.2848561 
28200000    184.20578   -46173.113    1259.9873    6836.9895   -3259.2013    202.17351   -1258.6621    -5122.879    7172.5868     18.69859     18.69859     18.69859            0            0            0    2.2890651 
28300000    169.46136   -46175.474   -2635.5524   -1620.9264   -964.79355   -5320.9373   -1893.4862   -7005.0345    4944.1122    18.717157    18.717157    18.717157            0            0            0    2.2822596 
28400000    175.81627    -46210.38    1791.7456     4070.876   -923.30404    2227.6649    721.50277   -6676.1977    6509.8799    18.679204    18.679204    18.679204            0            0            0    2.2961993 
28500000    158.99997   -46228.929   -229.03054     711.4786    1610.1675   -3008.7377    217.43005   -5769.5881    5585.6081    18.697253    18.697253    18.697253            0            0            0    2.2895562 
28600000    134.97276   -46229.301    3130.0674    4059.9868    3154.0045    2176.2109    1109.5219   -7744.1366    6593.7302    18.647588    18.647588    18.647588            0            0            0    2.3078986 
28700000    127.18844   -46246.968   -486.91372    4413.2175   -3934.2437   -1939.7149    -2684.804   -8697.8238    5133.6434    18.682817    18.682817    18.682817            0            0            0    2.2948675 
28800000    125.85598   -46260.392    1244.2025    3144.8088   -613.18486    1200.9836    776.89895   -6172.1764    7155.9638    18.660953    18.660953    18.660953            0            0            0    2.3029432 
28900000    108.92057   -46266.092    908.35887    5345.4693   -3289.3898    668.99704   -734.69561   -6767.1754    4284.8229    18.690947    18.690947    18.690947            0            0            0    2.2918742 
29000000    100.43512   -46278.476    950.59408    3869.2064   -1506.7547     489.3305   -1318.7208   -7528.5345    8730.6456    18.686042    18.686042    18.686042            0            0            0    2.2936795 
29100000    86.746049   -46296.197   -997.96189     3216.503    -3872.139   -2338.2497    2376.2381   -6237.5099    7075.4575    18.667019    18.667019    18.667019            0            0            0    2.3006988 
29200000    83.371926   -46307.356   -976.58375     2721.267   -2243.3742   -3407.6441   -67.518556   -5794.0608    5162.8625    18.658858    18.658858    18.658858            0            0            0    2.3037193 
29300000    65.527711   -46318.475   -63.366692    4103.0392   -1906.7696   -2386.3697   -743.00813   -7789.4936    7808.9744    18.698708    18.698708    18.698708            0            0            0    2.2890216 
29400000    63.280663    -46336.05    364.73002    3092.8988   -1832.6188   -166.08998   -963.11896   -8287.7952    6286.0722     18.66928     18.66928     18.66928            0            0            0    2.2998632 
29500000    48.236594   -46355.191   -2738.1855   -467.46437   -4877.0351    -2870.057   -241.43018   -7301.8954     5925.778    18.700527    18.700527    18.700527            0            0            0    2.2883538 
29600000    40.337986   -46359.913    400.33677    3874.6088   -2543.3608   -130.23764    422.13866   -7626.6097    5608.5884    18.674637    18.674637    18.674637            0            0            0    2.2978845 
29700000    29.996685   -46375.794   -947.47516    1928.2255   -3365.8429   -1404.8082   -16.226176   -7512.4599     6225.507    18.681009    18.681009    18.681009            0            0            0    2.2955339 
29800000    20.853318   -46390.589    1004.7911    5101.5663   -1975.0127   -112.18039    95.603128   -7748.5351     6779.968    18.669988    18.669988    18.669988            0            0            0    2.2996014 
29900000    9.8213227   -46401.123   -354.25478     2791.192   -2214.3158   -1639.6405   -155.73737   -7608.5773     6505.352    18.672959    18.672959    18.672959            0            0            0    2.2985042 
30000000   0.02691498   -46415.198   -46.959034    3177.7413   -2243.6321   -1074.9863   -131.87205   -7273.4253     6502.618    18.675584    18.675584    18.675584            0            0            0     2.297535 
Loop time of 4382.2 on 24 procs for 30000000 steps with 450 atoms

Performance: 591.483 ns/day, 0.041 hours/ns, 6845.873 timesteps/s
89.6% CPU use with 24 MPI tasks x 1 OpenMP threads

MPI task timing breakdown:
Section |  min time  |  avg time  |  max time  |%varavg| %total
---------------------------------------------------------------
Pair    | 658.45     | 832.75     | 1039.6     | 288.3 | 19.00
Neigh   | 41.675     | 47.109     | 52.435     |  37.3 |  1.08
Comm    | 2187.8     | 2412.7     | 2630.3     | 201.0 | 55.06
Output  | 0.051043   | 0.051247   | 0.053445   |   0.2 |  0.00
Modify  | 892.2      | 947.35     | 997.03     |  92.4 | 21.62
Other   |            | 142.2      |            |       |  3.25

Nlocal:        18.7500 ave          24 max          12 min
Histogram: 1 1 1 1 3 8 2 3 1 3
Nghost:        1291.88 ave        1328 max        1257 min
Histogram: 1 1 3 3 7 2 1 4 1 1
Neighs:        2696.50 ave        3836 max        1709 min
Histogram: 2 0 4 2 5 6 3 1 0 1

Total # of neighbors = 64716
Ave neighs/atom = 143.81333
Neighbor list builds = 687331
Dangerous builds = 0
unfix            1

#fix             1 all nve
#fix             2 all temp/rescale 10 1 2000 1 1
#run             1000
#unfix           1
#unfix           2

write_data      end.dat
System init for write_data ...

Total wall time: 1:13:02
