ITEM: TIMESTEP
0
ITEM: NUMBER OF ATOMS
450
ITEM: BOX BOUNDS pp pp pp
-4.2652611239610749e-01 1.9151951262545488e+01
-4.2652611239610749e-01 1.9151951262545488e+01
-4.2652611239610749e-01 1.9151951262545488e+01
ITEM: ATOMS id type x y z
170 2 3.21531 2.54185 3.45592
120 1 2.41706 3.00973 1.71828
272 2 2.00718 4.53427 1.66938
134 1 3.60886 5.33672 1.88069
242 2 0.686939 2.26686 1.51089
234 2 3.13643 1.78436 0.921638
276 2 7.5544 0.962609 4.27414
177 2 4.60685 4.13886 1.94183
247 2 6.96697 3.34702 2.3363
118 1 5.50571 2.48997 1.51405
200 2 5.97557 0.55312 1.72292
28 1 2.07198 0.531271 0.388655
113 1 8.92963 3.87456 2.02054
214 2 5.6271 3.03808 -0.0414715
78 1 3.31272 2.87467 5.15832
379 2 5.71262 1.73738 6.0447
252 2 2.52733 3.21266 6.6283
203 2 3.59137 4.61533 4.68854
95 1 9.10986 -0.154312 7.80063
57 1 6.8302 0.377182 5.69349
403 2 8.72835 0.589133 6.49627
133 1 1.40164 3.69316 7.78108
257 2 4.79461 5.8076 7.0217
268 2 6.22465 0.217858 7.44595
319 2 8.34105 4.03948 5.33803
73 1 8.44591 5.54645 5.89834
260 2 9.1588 5.49936 7.48681
256 2 -0.293173 1.2885 5.99441
303 2 -0.116699 3.65161 7.41093
92 1 3.80276 6.05738 5.69363
17 1 4.87369 -0.178569 8.18626
347 2 6.9651 5.26924 9.10533
438 2 9.11856 0.979293 8.87058
248 2 1.29773 2.23268 8.6004
149 1 8.90315 5.54597 9.16091
213 2 3.1409 0.393011 8.46094
394 2 1.65644 4.72182 9.06389
123 1 5.17786 5.2569 8.93188
230 2 4.849 3.6826 9.2633
218 2 5.13574 1.80565 12.0252
418 2 3.3557 1.99627 10.1132
77 1 5.10486 2.25145 10.464
39 1 5.4563 0.664962 13.1427
94 1 2.47556 4.96258 13.7961
407 2 1.85825 4.73071 12.24
23 1 1.381 5.82831 10.4537
116 1 8.39458 5.45639 13.5748
75 1 8.48161 -0.0718265 13.6973
369 2 6.80508 4.75433 14.1838
397 2 9.34765 4.6469 12.443
209 2 7.13668 0.632641 12.5827
367 2 5.53954 0.801307 9.64436
389 2 0.340443 2.02566 12.9004
69 1 2.11786 1.02405 9.49377
449 2 -0.113319 5.93621 10.6981
305 2 1.00731 0.782851 10.5508
330 2 4.29411 4.7003 14.1814
107 1 0.683514 0.649939 12.1131
395 2 3.64917 3.95271 17.6655
100 1 2.45364 3.20321 16.6793
24 1 4.96559 5.29093 17.8012
168 2 4.23513 1.68306 17.3502
83 1 4.73498 0.489098 16.372
304 2 2.33937 3.72018 14.9985
59 1 0.100267 5.0476 17.143
406 2 1.34771 1.93693 16.9727
159 2 1.46997 6.04688 17.4848
415 2 5.10349 1.25866 14.9147
306 2 -0.31559 4.354 15.0676
15 1 0.10489 2.28306 18.0735
404 2 1.17107 3.81346 17.9443
285 2 6.32346 4.10018 17.4051
355 2 8.64578 0.336362 15.2582
31 1 5.45869 5.36566 15.1614
147 1 8.21285 0.842822 16.8271
311 2 6.93734 1.73065 17.43
295 2 0.741009 0.848118 18.8986
27 1 5.46625 2.80227 17.934
300 2 3.84689 5.99611 16.7272
178 2 9.27181 5.57576 15.1947
341 2 3.07955 6.68493 2.1874
40 1 2.07045 7.968 1.8787
359 2 0.36796 8.32545 2.45292
350 2 3.16133 9.24078 1.69679
68 1 0.888238 12.4409 2.9783
387 2 0.845886 12.1046 1.32384
3 1 3.85548 9.79908 0.322053
250 2 6.52641 7.73583 1.3441
383 2 1.80824 7.4633 0.405929
244 2 5.24486 10.7104 0.402855
154 2 6.99661 8.78807 3.69517
131 1 6.426 11.7187 1.07232
152 2 7.21918 10.4731 1.73081
191 2 8.88958 7.78804 2.51568
136 1 7.50778 8.64725 2.22036
401 2 -0.409527 11.5769 3.30061
335 2 4.07256 6.11627 -0.154296
117 1 1.29016 12.2229 -0.39105
282 2 2.7297 10.9498 -0.330311
253 2 3.21427 10.7071 8.66178
364 2 2.21627 8.90006 6.86668
316 2 2.36169 6.56987 6.60182
328 2 4.57507 7.57113 5.25084
365 2 -0.337426 7.89687 5.71282
216 2 5.17568 10.3564 7.13609
72 1 3.34835 10.1116 7.21139
382 2 0.568873 12.3538 7.53524
357 2 0.335988 7.2947 7.70596
87 1 1.19721 7.84676 6.50745
14 1 3.60904 12.0748 4.8256
157 2 3.70233 10.3295 5.30758
251 2 7.31538 11.983 7.54965
363 2 6.75499 6.65816 5.36367
186 2 6.92679 9.0617 6.45791
10 1 6.18428 8.0723 5.19723
102 1 6.62495 10.2268 7.69623
421 2 9.22963 6.28533 4.87702
346 2 1.00229 11.6947 5.18514
262 2 5.11649 12.4724 4.50316
324 2 6.58103 9.66027 9.15045
184 2 8.04967 6.96816 12.925
288 2 4.83774 11.4069 11.1855
344 2 4.7072 6.53896 9.80594
416 2 2.27604 7.05437 11.1257
386 2 4.72839 8.81556 11.2392
298 2 2.28819 6.54248 13.5175
146 1 0.456196 9.9855 14.1386
105 1 3.90991 7.49068 10.9857
378 2 0.351512 11.0932 13.1324
235 2 5.17897 10.599 13.6691
37 1 5.92491 10.0153 11.3567
436 2 6.96643 9.22384 12.3337
21 1 8.16954 8.56131 12.981
245 2 7.38003 11.9179 11.7165
56 1 8.01797 12.5236 13.1616
280 2 6.0584 6.50867 17.6017
419 2 3.62684 8.5738 18.7518
302 2 6.00433 6.78944 14.9786
66 1 2.46648 6.35312 18.8729
249 2 0.0349996 10.8145 15.4685
231 2 0.971762 9.01683 16.9254
96 1 4.35691 10.7103 15.1529
148 1 5.83355 8.29352 16.8748
114 1 0.0547128 10.2594 17.031
413 2 4.74502 9.08836 15.7408
373 2 0.266586 11.4857 18.229
271 2 7.29736 9.04316 17.345
125 1 8.40503 9.44631 16.3255
212 2 8.06877 8.89637 14.8229
278 2 8.67647 11.0124 16.831
377 2 9.05136 6.10927 17.7972
195 2 3.36177 11.9723 14.9316
180 2 5.52077 11.3981 16.661
160 2 8.08655 12.0901 14.6099
2 1 9.17169 12.3673 15.816
53 1 7.27506 19.0926 2.54259
439 2 8.70803 18.9421 1.59932
182 2 6.55759 18.5163 3.80626
4 1 8.60593 17.7936 0.159421
294 2 6.38223 12.9601 2.32984
396 2 2.64785 12.626 3.38892
161 2 7.51598 14.8531 0.0616946
299 2 2.30336 15.9347 1.89697
85 1 6.35081 13.2831 3.92579
358 2 5.30167 16.2189 0.967618
314 2 0.548315 14.2878 2.86031
399 2 1.70389 16.3314 4.32642
417 2 4.43614 16.968 3.27084
446 2 -0.000503714 16.8512 2.32371
130 1 3.83602 16.3047 1.76631
41 1 1.01357 15.7892 3.00163
143 1 5.73765 16.6087 4.21617
217 2 5.69028 14.8921 3.87185
111 1 9.12949 14.9609 -0.0601703
374 2 2.88224 18.7157 0.640646
54 1 -0.156322 12.6646 6.00615
109 1 8.01812 16.3675 8.90589
127 1 5.36008 16.0083 7.76397
63 1 2.09593 17.6381 5.42732
441 2 4.97956 17.5574 8.43177
360 2 4.99275 16.0365 6.14747
239 2 3.78992 15.1021 7.83369
219 2 3.65707 18.7622 5.28115
291 2 0.590012 18.3701 5.33501
128 1 3.60337 13.6131 7.7952
190 2 2.10245 17.1393 6.86275
265 2 2.95538 12.7879 6.41467
322 2 4.31221 12.9892 9.03846
292 2 0.451582 19.005 8.18571
124 1 1.33296 17.5217 8.38926
447 2 7.46577 12.659 5.01136
43 1 8.09796 13.0154 6.51827
390 2 0.219039 16.1291 8.22395
166 2 7.49884 16.4549 4.78079
356 2 7.94678 14.6885 6.54632
42 1 8.96082 15.6154 5.3159
196 2 6.59793 15.2732 8.74814
269 2 8.65185 17.6172 8.10766
98 1 4.9004 12.8949 10.7514
211 2 -0.040983 16.887 10.9031
315 2 -0.0306212 16.2137 12.9664
323 2 2.34393 16.6297 9.43343
175 2 -0.355262 13.5997 12.7453
151 2 4.56489 18.8827 13.3768
227 2 3.10015 16.5428 11.8479
258 2 1.54401 14.7341 12.2692
393 2 4.8977 14.0448 12.1381
140 1 3.72681 17.34 13.1235
112 1 0.306894 14.7056 13.3913
193 2 7.39402 17.9987 13.6506
201 2 6.72706 13.4993 13.4294
36 1 5.48786 14.6239 13.6775
199 2 7.69898 16.4672 10.7041
361 2 6.2918 15.9969 13.6991
273 2 8.95602 16.0907 13.3562
67 1 7.6911 16.4856 12.4737
172 2 -0.188938 18.9084 12.3254
51 1 1.43206 16.118 11.109
435 2 -0.35578 16.6167 18.8488
345 2 4.76181 14.8153 18.2237
425 2 7.98168 19.032 17.3935
307 2 2.01303 13.7118 18.9242
336 2 6.57079 16.7708 17.8485
450 2 4.08005 14.9463 14.7772
204 2 3.48628 19.1228 16.2658
169 2 3.74883 16.7482 16.6221
422 2 1.40261 13.9643 14.5039
65 1 3.23602 15.3719 17.7766
240 2 2.94982 17.1426 14.4796
208 2 2.85587 13.9679 16.6478
9 1 2.71056 17.8041 16.0066
171 2 1.95114 16.8818 17.66
11 1 3.05412 13.4979 15.1206
48 1 0.176207 17.4573 17.5877
156 2 6.17576 18.8828 15.8097
210 2 8.19965 16.6365 15.8079
326 2 9.0522 14.2318 15.5829
129 1 7.45789 17.9917 16.1571
431 2 0.76546 18.1673 16.1055
115 1 6.02909 15.7979 19.1466
443 2 9.92266 0.0196195 4.23281
238 2 9.50122 2.6672 2.92935
402 2 9.58285 4.35496 0.445222
38 1 14.6923 0.469877 -0.264399
135 1 11.3448 0.322049 0.969176
297 2 13.1925 -0.130983 0.666617
5 1 18.9451 1.94738 2.55431
119 1 16.5146 2.32091 1.26312
409 2 16.3106 5.59412 2.96647
139 1 18.0744 4.79887 3.79847
277 2 15.9042 1.99046 3.14187
165 2 17.8936 1.6703 1.534
432 2 13.3562 3.59662 3.76378
47 1 14.2509 2.08816 3.52905
400 2 13.5079 0.593896 4.13252
354 2 18.752 3.60799 2.86562
308 2 18.9884 0.248459 2.76863
185 2 9.51883 5.25828 2.77467
434 2 16.9888 4.10813 0.144867
192 2 15.0569 1.79934 0.507806
215 2 13.7538 2.93243 6.76591
74 1 12.0136 3.74968 5.99529
339 2 11.0702 2.55093 5.43593
108 1 9.40126 1.62993 4.64654
290 2 11.6971 5.38219 6.08957
414 2 16.6532 2.89639 6.13395
348 2 18.3816 4.33577 5.40033
137 1 18.3994 2.68748 6.23111
84 1 15.4533 2.89429 7.07632
264 2 15.6246 1.35153 7.64163
342 2 17.6695 5.96222 7.61878
34 1 16.2367 -0.325579 8.05309
44 1 19.0732 -0.263353 6.62734
405 2 15.4029 3.67959 8.80794
202 2 9.88317 0.0698252 12.7016
46 1 10.1206 3.7323 10.9847
183 2 10.052 4.28692 9.5928
228 2 12.0136 4.33222 11.3504
79 1 18.7042 3.18318 14.0156
301 2 16.8998 5.09032 10.7009
188 2 18.5951 3.86877 12.339
101 1 18.1703 5.37828 11.5239
97 1 12.0349 3.29002 12.6377
366 2 13.0606 2.63646 13.6566
220 2 10.5788 2.7545 12.059
104 1 11.049 -0.324243 11.7637
229 2 11.5836 0.966213 10.9482
376 2 14.2175 0.434597 13.2365
71 1 15.9115 5.40649 9.41016
52 1 13.3083 5.36444 19.0182
173 2 12.7336 3.60831 16.1863
254 2 11.3667 1.66732 18.0659
430 2 18.1575 2.01596 17.7503
145 1 14.0145 4.12412 15.4357
241 2 14.7592 2.47993 15.809
237 2 13.5889 3.61851 18.6613
16 1 16.9718 0.372171 15.4677
261 2 17.6015 2.24904 14.9522
58 1 12.8519 2.60789 17.4432
362 2 15.3672 5.01096 15.2783
194 2 15.3603 0.122591 14.9479
296 2 18.116 5.64316 17.7241
30 1 16.6732 5.80991 18.7373
144 1 14.1037 1.54962 14.6577
121 1 10.0276 4.86526 18.5216
279 2 11.5225 5.54872 18.81
205 2 10.3072 3.54366 17.3197
329 2 13.0202 4.90497 14.2604
340 2 11.351 0.866868 15.9697
142 1 11.9212 0.336578 17.3556
370 2 13.3464 1.00894 17.8999
428 2 14.0713 5.72868 17.4858
179 2 10.5502 -0.256868 18.9936
232 2 14.5098 9.05723 0.370615
338 2 18.9813 6.43103 3.74172
61 1 18.6664 7.98374 3.46289
164 2 16.3481 11.1366 2.99819
49 1 9.98854 6.63413 3.36185
380 2 11.5659 6.93987 2.58474
321 2 13.4519 6.94843 0.117134
132 1 15.8968 7.00894 3.83805
86 1 12.7592 7.96774 3.3783
22 1 17.4226 10.6462 4.35394
332 2 16.8496 7.96666 2.73402
440 2 14.4056 7.2695 3.19052
197 2 13.2437 9.8104 3.05835
1 1 14.5239 10.9914 3.37311
198 2 16.3541 7.23381 -0.201324
226 2 11.6602 11.1249 7.02811
448 2 17.9159 9.16895 4.49134
327 2 11.293 7.67858 7.68065
313 2 15.8708 6.95075 5.55918
91 1 11.9968 6.98524 6.17552
284 2 17.1555 8.46068 7.05648
6 1 18.1188 7.29898 6.74471
221 2 11.8882 7.91501 4.82763
150 1 15.1567 7.63715 7.02871
333 2 17.8198 11.7706 5.70192
155 2 13.6218 6.841 6.45176
442 2 13.848 10.8059 5.38587
427 2 14.4676 9.21718 7.04816
349 2 17.5496 11.8514 8.44308
19 1 13.5347 10.5206 6.99889
437 2 14.1915 11.9182 7.8822
223 2 15.2502 6.75534 8.63059
93 1 10.586 8.10573 8.97098
320 2 9.46702 7.21019 9.41205
412 2 19.0849 12.2839 10.3406
286 2 18.9546 8.85795 13.6945
263 2 9.85353 9.02643 12.4153
411 2 11.2142 9.20398 10.0369
106 1 11.3743 9.65129 11.6842
233 2 12.3125 7.00205 13.0345
445 2 12.7294 9.58894 12.4802
70 1 18.7856 12.1008 12.1571
167 2 15.09 11.1461 11.6686
246 2 14.8661 12.4686 13.2459
81 1 17.1912 7.91568 13.4569
289 2 17.5854 6.66185 12.4446
266 2 16.1195 8.76883 12.3748
26 1 16.3987 10.0435 11.4197
158 2 17.558 11.3153 11.8302
60 1 14.4295 12.5737 11.5833
243 2 12.3339 12.2991 11.1985
408 2 16.7224 8.99963 10.1069
141 1 9.79596 6.62918 16.2008
444 2 9.43302 8.08977 16.5768
423 2 11.4852 6.55667 15.6364
353 2 10.7317 12.2073 15.5895
32 1 12.8708 6.555 14.5091
207 2 15.9841 8.55997 17.1547
287 2 16.6938 7.39971 14.8873
429 2 14.2835 7.40511 15.1822
25 1 15.5324 8.08643 15.7614
318 2 15.2671 9.86086 15.1691
126 1 15.1411 11.3973 14.5174
189 2 13.9137 12.0725 15.3186
110 1 15.6381 8.58125 18.7807
174 2 16.5488 12.3094 14.9644
255 2 17.4821 17.7713 0.94719
236 2 11.8974 18.4383 2.24995
372 2 9.50479 16.3397 0.3611
420 2 13.6605 16.7027 -0.0446945
368 2 14.2002 17.8522 3.33651
371 2 14.1198 12.6496 2.96676
381 2 17.6221 14.4597 0.646225
12 1 15.3013 13.9148 2.27091
8 1 15.5659 17.0441 3.97978
18 1 12.8148 18.5665 3.71987
283 2 17.0724 17.6348 3.30162
206 2 10.9794 14.1395 1.34686
293 2 12.3384 15.4863 2.96488
64 1 18.4858 18.0571 2.65612
337 2 9.73146 14.8372 4.20369
62 1 11.0152 14.7326 2.76833
424 2 15.2014 15.5301 3.0582
187 2 14.09 14.4493 1.22391
76 1 13.3089 16.0256 1.62901
309 2 14.7073 15.0496 7.6287
433 2 18.205 14.1476 8.52622
312 2 19.1218 14.2013 6.10028
391 2 12.1116 13.9934 5.71713
388 2 9.78746 12.9624 7.04479
7 1 11.6557 12.7887 6.90213
281 2 9.5887 15.6001 8.71874
343 2 16.9014 16.2498 6.85934
138 1 18.836 12.6811 8.88047
352 2 14.631 16.888 5.50105
82 1 15.1445 16.5907 6.94421
259 2 15.0181 18.1435 7.55012
153 2 12.0488 13.4992 8.37118
426 2 11.6932 16.2038 7.57736
275 2 9.99987 16.9945 5.81883
331 2 17.4669 18.9336 7.02684
225 2 12.2339 17.9577 5.01735
99 1 11.6862 17.1503 6.40496
122 1 18.2795 15.1948 7.20607
20 1 14.0921 13.7331 8.59528
35 1 10.7992 14.4865 8.84405
267 2 14.3388 13.7441 10.4047
45 1 18.5087 17.4328 12.1989
317 2 12.0916 17.9746 12.4081
310 2 16.5487 19.04 9.66028
89 1 10.9784 13.2519 12.1484
176 2 9.44059 12.8886 12.7148
351 2 11.8348 12.9439 13.4432
80 1 13.5749 18.3749 12.7901
392 2 10.643 14.238 10.6057
375 2 14.3157 17.7971 11.1097
224 2 16.8797 17.0033 11.8523
88 1 15.9452 17.8758 10.8572
410 2 13.5264 17.07 13.8907
29 1 17.584 15.5141 18.9515
398 2 13.041 18.4808 17.5326
274 2 16.282 16.6567 18.2103
162 2 18.2953 15.067 14.5846
90 1 12.4232 13.0199 14.9956
270 2 15.8514 14.8235 15.0999
13 1 17.2213 14.713 15.666
222 2 14.43 16.3934 16.6704
163 2 17.4359 18.6189 14.5588
334 2 17.8106 14.6082 17.5101
181 2 10.4823 16.8019 15.2876
55 1 9.43835 15.737 14.8684
325 2 12.9121 14.5845 15.1038
385 2 18.1532 18.1227 17.1018
33 1 14.2437 15.9506 15.0217
384 2 15.5903 19.0788 17.8222
50 1 13.9774 17.1781 17.9179
103 1 16.9775 18.1649 18.2615
ITEM: TIMESTEP
100000
ITEM: NUMBER OF ATOMS
450
ITEM: BOX BOUNDS pp pp pp
-4.9799711451102269e-01 1.9223422264661281e+01
-4.9799711451102269e-01 1.9223422264661281e+01
-4.9799711451102269e-01 1.9223422264661281e+01
ITEM: ATOMS id type x y z
203 2 7.55847 0.152489 0.704226
317 2 1.30246 4.38619 -0.449609
340 2 6.65772 4.94187 2.15832
425 2 6.31085 2.6257 0.331624
210 2 2.86473 0.195438 2.99493
132 1 -0.114299 4.67101 3.69261
37 1 3.2548 3.55062 2.87605
356 2 4.80483 2.94948 3.40372
142 1 5.98259 0.922738 0.657684
358 2 1.46057 2.54701 2.89565
410 2 2.48739 5.07871 3.42904
257 2 6.26248 0.921168 2.36602
33 1 1.50323 0.606053 3.89143
3 1 8.20925 -0.378183 2.2288
7 1 7.4467 4.13407 0.957049
183 2 9.00472 4.14808 1.47692
123 1 0.165244 0.36471 -0.113953
71 1 -0.0116348 4.80152 0.459459
324 2 0.471425 -0.134456 2.94651
449 2 3.58428 3.69961 1.15693
263 2 4.01566 0.230291 0.368632
264 2 -0.32239 4.46091 2.10597
318 2 9.06289 2.01159 3.23698
345 2 1.5416 -0.121804 0.69726
12 1 8.79904 5.48799 6.18281
193 2 3.04196 3.47338 8.52244
104 1 3.71724 4.08251 7.17072
129 1 1.5366 2.97667 9.09884
359 2 5.28598 0.647337 5.61409
272 2 0.916283 3.21625 7.68147
28 1 5.25362 2.25694 4.92802
266 2 6.00726 4.53408 7.86643
427 2 2.77685 5.55621 7.17811
301 2 4.10828 3.15019 5.71831
157 2 8.6467 3.86973 5.7326
245 2 6.67883 2.64597 4.6526
109 1 8.3755 2.68919 4.49299
162 2 -0.377339 3.82654 5.07773
163 2 2.28065 -0.630837 8.14937
241 2 1.0628 0.67 5.43196
154 2 4.61642 6.12961 9.09779
98 1 0.678893 5.55502 10.4044
229 2 4.60511 0.636529 10.3594
435 2 5.83334 3.05346 10.3269
446 2 3.15234 2.76671 11.1246
13 1 5.76112 -0.304646 10.3009
305 2 7.20121 5.26667 10.0784
271 2 0.136645 6.31299 12.0959
419 2 1.17361 1.37058 9.31539
136 1 7.13203 1.06947 13.6797
450 2 6.90245 0.172994 11.3935
145 1 8.71033 5.53948 10.9321
31 1 4.74778 2.27975 11.3596
100 1 6.00291 4.4226 9.50524
221 2 8.91938 1.64385 13.1385
44 1 1.45694 -0.332374 9.58558
294 2 5.50961 1.84528 13.0864
413 2 2.73784 -0.170892 13.4771
247 2 1.16128 3.98855 10.2227
67 1 8.55994 0.811288 19.035
147 1 7.028 1.91099 16.8022
346 2 7.14628 1.85975 15.1631
321 2 3.43085 1.60011 15.6781
76 1 2.47735 0.462826 15.066
385 2 4.29024 5.21548 18.6425
314 2 6.95936 4.9509 18.6334
153 2 8.25639 1.31781 17.4984
443 2 5.83396 0.0386735 17.7335
81 1 4.40855 1.36735 17.5972
306 2 5.71802 2.62252 17.4126
339 2 3.11352 2.47863 18.1687
354 2 0.872273 0.772326 15.3491
43 1 -0.628535 1.21825 15.6038
204 2 9.33529 5.78238 14.4853
4 1 3.21996 3.85641 19.2668
231 2 -0.030399 5.109 14.5578
248 2 6.26897 7.61287 4.29005
189 2 1.73666 6.65039 1.91421
285 2 4.88436 8.89063 0.419386
51 1 5.87238 10.6512 0.832256
38 1 7.43802 11.8739 3.46354
39 1 5.99536 6.51889 2.62515
182 2 6.0732 6.6478 0.895659
58 1 3.05574 6.52032 3.23263
344 2 2.29633 11.5531 0.120026
68 1 0.846788 7.78635 0.994083
280 2 6.94394 11.0816 1.99527
387 2 4.36778 11.4936 0.862141
59 1 3.28706 10.1079 0.249846
350 2 4.69996 6.42292 3.36068
395 2 9.03666 11.69 3.51606
366 2 2.26018 8.78265 0.984004
262 2 7.01288 10.0981 4.00647
422 2 0.0997232 9.49705 4.50039
139 1 3.23158 9.79657 8.05669
95 1 3.43344 10.7712 5.76213
357 2 6.80513 10.017 6.18631
429 2 4.27894 9.95129 4.73663
127 1 7.91826 10.4222 7.6593
438 2 2.55167 7.18541 4.99913
227 2 7.32085 11.3732 8.84477
336 2 0.740293 7.27383 7.05251
367 2 6.29132 7.72425 8.66007
404 2 3.47315 8.15265 8.26361
341 2 4.95066 7.18306 6.47323
50 1 2.91836 7.21118 6.61505
197 2 3.97936 11.3046 7.24725
418 2 1.99575 10.0612 6.8697
73 1 0.583812 10.1876 6.01718
168 2 9.23564 11.6042 7.10294
276 2 8.94747 9.26991 8.50324
103 1 5.95249 9.14053 4.91329
249 2 7.43422 6.36484 6.82383
236 2 5.60248 12.4156 5.44895
41 1 5.91264 6.402 7.60761
196 2 -0.378731 6.04898 9.32373
414 2 1.76444 11.3357 4.59709
19 1 1.85436 10.7506 11.3642
311 2 0.204699 8.24752 11.0514
279 2 3.52664 7.05329 12.9915
165 2 5.38057 12.4553 13.8655
214 2 6.2242 7.63489 13.168
36 1 4.77658 7.75096 12.5295
400 2 4.51622 8.00957 10.8883
169 2 4.80545 9.71118 13.5101
283 2 7.95297 10.7769 11.6868
56 1 8.7754 10.0976 13.0655
360 2 8.78633 8.66661 13.848
440 2 0.907474 9.93067 12.3746
15 1 4.3557 11.1621 13.1683
96 1 8.07713 11.2903 10.1567
423 2 2.06144 6.31225 9.93443
218 2 8.14448 6.62949 12.1336
393 2 3.32417 11.597 11.9674
287 2 0.777939 11.98 11.1
424 2 1.41627 7.62804 13.6196
6 1 3.71282 7.24084 9.65269
224 2 2.59573 10.3582 9.47221
373 2 8.47782 11.2026 14.1356
16 1 8.10747 6.91416 13.9785
106 1 -0.468391 8.8727 12.4022
89 1 0.865548 6.06017 13.4476
186 2 2.83966 11.2641 14.2982
267 2 7.62969 7.20103 15.62
289 2 9.03235 10.0849 17.6851
371 2 5.79967 7.02649 17.5025
70 1 2.81693 11.222 16.1109
199 2 2.5773 9.55484 15.6254
293 2 1.29036 7.34347 16.7212
403 2 3.68908 7.14208 15.3097
111 1 7.37491 10.8506 17.6622
296 2 6.52281 9.70319 16.8169
92 1 2.26595 7.7755 15.5068
119 1 -0.176818 7.53365 17.5167
72 1 6.76526 8.06733 16.7104
256 2 3.34051 10.039 18.2157
376 2 8.04232 7.87049 17.9217
191 2 1.27042 12.3617 16.1488
428 2 6.95754 10.5808 19.3352
379 2 7.51168 12.132 16.5864
83 1 5.8053 6.0736 18.7367
284 2 4.05768 12.1573 16.5091
315 2 0.26104 7.505 19.3619
230 2 3.96323 13.7813 -0.0782311
108 1 6.65627 14.8895 3.21108
268 2 4.41751 17.7703 1.8434
74 1 5.4318 16.8707 0.850173
215 2 5.67709 15.4978 1.83279
201 2 7.68388 13.4192 3.63048
252 2 7.54555 17.8274 2.5116
135 1 3.32314 12.7904 0.82044
63 1 2.01173 12.9249 4.25104
112 1 2.94861 19.0177 1.32883
377 2 2.26617 13.2712 2.46591
158 2 0.627439 13.4278 4.0574
298 2 5.62384 15.315 -0.712834
170 2 5.88591 18.8807 8.50053
299 2 7.092 18.1384 5.92252
363 2 3.09563 16.142 7.52703
117 1 2.58785 17.8064 7.01264
126 1 5.22894 13.782 5.97544
384 2 4.95309 14.5097 7.40978
177 2 7.89246 16.9543 8.2438
220 2 0.828978 17.9688 6.443
166 2 3.97144 18.236 5.98662
54 1 5.39447 18.8978 6.63309
115 1 4.1721 15.3061 8.55437
291 2 5.79458 14.991 4.7867
237 2 3.44197 13.3607 5.3247
45 1 8.55269 17.4196 6.48603
353 2 -0.388927 16.0453 4.6441
149 1 -0.532944 14.4178 4.67556
322 2 9.01182 13.9802 6.8675
30 1 7.00736 17.7317 14.5529
35 1 3.35272 18.5212 12.0767
312 2 6.30027 16.7141 13.0495
101 1 3.07151 15.7133 13.4612
80 1 6.11387 14.1432 13.4607
188 2 3.61506 17.197 13.3653
152 2 8.76655 12.7546 10.4669
325 2 0.0936437 14.2748 11.1836
288 2 6.81876 14.1857 11.8369
180 2 9.15762 13.3477 13.1147
270 2 -0.326822 18.6898 9.72673
217 2 2.02643 15.9325 12.3448
88 1 5.52593 16.6508 11.3369
328 2 4.3679 14.6684 13.0564
269 2 4.71282 15.7583 10.1501
133 1 0.511512 15.7188 11.7973
138 1 8.74351 13.8879 11.6407
192 2 8.8313 16.8511 13.5641
319 2 8.99551 15.2502 11.1744
407 2 2.2444 18.8148 10.8009
300 2 4.59821 17.6627 11.5138
122 1 8.48958 16.3581 9.66983
335 2 6.93026 16.9277 10.4332
397 2 7.50074 19.3735 14.1078
439 2 7.07106 14.5453 14.9525
86 1 5.67338 18.0971 17.4884
150 1 7.57464 13.8038 16.545
447 2 0.792865 14.5329 17.0763
416 2 3.91397 18.9062 16.3204
172 2 6.96893 17.2429 16.3675
176 2 2.03605 16.1263 18.2613
337 2 6.19098 14.0421 17.4386
381 2 0.112358 18.5093 18.8218
57 1 0.386918 16.005 17.9839
173 2 3.60115 14.5775 16.999
254 2 2.44922 15.1377 14.8983
10 1 2.16098 14.5059 16.4576
102 1 4.75909 14.1913 18.2863
431 2 8.97107 14.323 16.857
49 1 -0.140401 12.8143 15.709
200 2 -0.333464 17.0631 16.9717
417 2 5.13776 17.4079 19.0962
181 2 9.64167 1.99344 -0.0499287
110 1 12.3601 1.15596 0.765349
307 2 16.423 2.31732 3.41231
118 1 15.3728 2.87317 2.2737
348 2 11.0177 5.4392 1.11475
250 2 18.5672 0.434196 1.21069
23 1 10.4884 5.58828 2.93116
364 2 16.2623 2.28425 0.540976
61 1 18.5688 -0.614182 2.66471
378 2 11.341 4.45414 3.80487
198 2 12.2349 2.78013 0.741942
308 2 13.689 2.72506 3.34779
85 1 15.1389 5.86923 2.03127
372 2 12.5753 0.0589474 1.8609
253 2 15.8779 4.38012 1.78291
97 1 10.0322 4.12839 0.11366
401 2 9.2844 5.65046 4.20112
310 2 11.833 0.017733 -0.49038
244 2 18.1801 3.73475 -0.444724
42 1 16.3668 1.88726 4.93382
206 2 17.7382 2.05952 5.79772
330 2 15.715 2.85473 6.00863
26 1 12.5366 3.04859 4.37202
94 1 14.1334 5.38542 6.74721
334 2 15.5752 4.97933 7.55642
402 2 11.6923 -0.391498 5.81995
40 1 19.3061 2.68874 6.57629
368 2 15.7774 0.463048 4.77688
238 2 13.4089 4.32173 5.76231
134 1 16.4834 3.6146 7.49017
302 2 18.2862 3.85748 7.13632
369 2 11.3437 2.01233 5.16387
141 1 10.6413 0.996632 6.33813
258 2 11.1575 1.23689 7.79764
275 2 16.7171 2.36311 8.81362
408 2 9.33022 -0.278723 6.27963
415 2 13.1125 4.78271 12.8116
445 2 9.05359 4.20877 11.6909
212 2 10.6919 1.55836 10.7246
430 2 18.3326 2.58422 10.9252
389 2 15.9174 0.929305 10.7732
14 1 14.3545 0.105367 9.38942
223 2 12.9905 0.813749 9.37342
27 1 16.7366 2.25259 10.6379
146 1 9.76085 2.29212 11.9858
309 2 14.1508 1.91544 12.7529
347 2 15.6665 3.93281 11.3174
87 1 14.2462 3.45289 12.1369
77 1 11.6053 1.52773 9.34648
391 2 12.0262 3.26953 9.33581
205 2 14.5891 5.89415 16.5489
434 2 16.6727 4.55915 14.9762
20 1 18.1852 5.00201 15.104
338 2 11.8261 2.44226 17.1351
232 2 19.2047 1.27719 18.583
22 1 10.8274 6.04115 14.9444
216 2 19.2619 2.37436 16.7901
233 2 10.2196 4.1369 18.1265
349 2 14.7239 -0.46761 19.3641
282 2 18.3545 5.7285 16.5088
2 1 15.6563 6.05677 15.2595
320 2 11.4712 4.4731 15.5099
48 1 11.6521 3.98978 17.0609
34 1 18.2198 2.48151 18.2483
159 2 11.9572 5.58312 17.3594
362 2 18.4808 -0.0149953 16.2908
156 2 18.2977 1.79379 14.1911
441 2 9.63416 -0.254765 18.3607
412 2 12.3256 8.35813 1.2403
365 2 11.9278 11.6625 3.26628
11 1 10.5235 10.7861 3.40829
327 2 16.4072 12.4976 1.93061
137 1 11.3301 9.71233 0.917125
174 2 10.6207 8.75135 -0.475536
62 1 18.8775 7.88624 3.7332
261 2 10.7275 9.4466 4.16581
52 1 15.9368 11.8163 0.366585
209 2 10.4441 10.449 1.86971
420 2 10.9335 6.93406 2.48746
421 2 12.1632 11.3341 0.331823
436 2 19.212 7.99057 1.78313
161 2 15.8249 9.89088 0.349902
355 2 13.6139 6.03972 1.72499
194 2 16.8843 6.56155 2.60804
121 1 12.3631 6.85889 0.943278
316 2 19.3586 6.27099 3.95275
265 2 11.3457 8.01314 9.26712
331 2 17.4627 7.00315 6.91995
155 2 16.3562 9.66544 6.49798
130 1 17.5369 10.1297 5.35571
18 1 16.3712 8.10008 7.25024
105 1 10.19 7.84955 8.13964
297 2 16.0257 12.5258 7.31555
326 2 15.5689 7.97467 8.60068
225 2 9.81298 6.9027 6.96938
274 2 14.6134 6.93637 6.10219
273 2 18.6457 8.73741 8.55372
187 2 18.816 10.2801 6.47103
25 1 19.2414 7.19325 8.0878
255 2 13.5356 11.9473 8.92173
234 2 17.3864 8.67556 4.308
375 2 17.2023 11.599 4.48763
78 1 12.2991 10.3249 13.8622
409 2 16.7479 8.33019 11.7709
82 1 15.1668 8.18009 10.5282
185 2 9.74318 6.03529 9.54409
21 1 13.7224 11.0834 10.7362
290 2 15.9507 11.8031 13.8386
405 2 17.6075 10.8548 11.5599
144 1 10.8084 7.80599 10.7511
17 1 16.6402 8.13919 13.4172
292 2 14.5003 7.01561 11.5146
84 1 13.3889 6.59178 12.7766
406 2 13.4549 10.4238 12.5349
370 2 12.0054 7.19618 11.7181
281 2 14.1432 9.62474 10.3651
46 1 16.6184 11.8388 12.3127
167 2 14.5317 6.39087 14.1361
448 2 9.87268 8.87591 11.5362
343 2 15.6657 9.00392 14.3738
219 2 18.2222 8.25697 13.5366
388 2 10.5922 10.8271 13.1804
386 2 15.1254 11.9314 11.4907
91 1 9.82935 12.2754 14.0956
195 2 11.9716 7.04002 14.2253
352 2 14.4368 12.0857 19.2033
160 2 16.7769 7.31459 15.1096
179 2 17.3782 10.3927 15.5397
207 2 10.3981 8.17783 16.6329
29 1 12.0546 9.54602 16.6998
433 2 12.7453 10.758 17.7449
148 1 15.8916 10.8852 15.2513
131 1 14.3143 11.2644 17.5581
93 1 16.5544 8.67751 18.8686
184 2 15.3164 9.39921 17.7139
213 2 14.593 11.6822 16.0259
411 2 12.9201 8.17131 16.8008
332 2 18.1283 8.56801 18.0981
396 2 11.6987 10.1351 15.3064
278 2 16.2549 6.56735 19.1934
64 1 13.2162 6.56873 17.4098
124 1 9.59242 8.61595 18.0151
398 2 13.106 6.44987 19.0975
442 2 10.1101 19.21 2.07262
178 2 12.8785 14.2378 0.705049
120 1 11.6832 18.426 1.51697
432 2 13.0671 17.3694 4.48474
242 2 14.8757 16.7132 -0.0931149
246 2 14.8887 15.5797 2.2785
1 1 11.7426 12.9516 0.629575
361 2 10.8044 13.3263 1.8939
351 2 12.39 16.961 1.50688
125 1 13.8679 16.1757 1.13784
333 2 18.7162 17.4062 2.27372
251 2 18.0245 13.9808 3.90926
171 2 15.7302 13.4935 4.75416
99 1 11.721 13.481 3.37242
143 1 16.525 12.9402 3.47316
240 2 17.728 18.9988 4.13554
342 2 10.3668 13.8474 4.61067
426 2 15.5731 17.2409 4.529
286 2 13.063 14.7694 3.48454
226 2 10.6191 12.6709 8.72824
277 2 18.7308 13.3772 6.41478
75 1 18.0212 12.9822 7.71546
53 1 10.1598 14.839 5.78394
374 2 10.0913 16.55 8.75248
79 1 12.596 17.9897 5.82588
444 2 13.2662 12.9256 6.59632
239 2 17.2542 17.855 6.08736
47 1 11.8367 16.9888 8.80899
390 2 12.2437 17.2311 7.19744
164 2 18.9308 16.8953 8.16787
228 2 18.7702 12.9209 9.02582
5 1 16.4094 18.5493 4.91282
107 1 18.9282 17.8248 6.7974
208 2 14.6306 14.9395 6.35382
140 1 14.9326 13.1577 6.18961
60 1 12.9524 13.2916 8.05027
175 2 15.0108 18.17 8.69057
69 1 10.0352 12.7915 7.03614
383 2 11.2131 13.9674 6.71683
437 2 9.41896 16.2801 5.82016
90 1 14.9694 15.7849 4.64462
9 1 18.2099 17.4662 9.99895
313 2 14.2002 18.1596 11.2407
8 1 14.4203 17.2565 9.96375
304 2 11.3796 18.236 9.43835
382 2 17.7059 13.0171 12.1139
128 1 18.1565 14.3458 13.2352
32 1 18.9921 12.7944 10.9704
222 2 16.673 16.8286 10.4586
303 2 19.2897 15.6787 13.3044
329 2 19.2444 17.0445 11.271
211 2 19.2501 13.0084 14.1371
323 2 13.19 15.9959 9.6737
66 1 18.5533 18.3628 17.3955
65 1 15.3244 17.8157 18.489
116 1 17.7106 13.7175 18.0453
235 2 11.1051 13.2015 18.4503
24 1 11.1046 19.5895 17.8334
392 2 17.0116 18.3231 18.3519
399 2 17.3367 14.8573 15.0175
151 2 14.5628 15.4599 14.902
190 2 11.9274 15.0555 17.1237
55 1 10.7913 13.9284 16.9907
259 2 11.2934 17.8123 17.2365
114 1 15.8766 15.0282 16.0695
380 2 18.3409 12.8602 16.8691
260 2 13.6859 17.127 17.204
113 1 12.2393 16.5747 16.5907
243 2 16.5595 14.7418 17.7312
394 2 18.9208 15.0974 18.8025
202 2 10.522 13.2839 15.5058
295 2 16.9777 12.608 19.0019
ITEM: TIMESTEP
200000
ITEM: NUMBER OF ATOMS
450
ITEM: BOX BOUNDS pp pp pp
-3.8120370541018467e-01 1.9106628855560643e+01
-3.8120370541018467e-01 1.9106628855560643e+01
-3.8120370541018467e-01 1.9106628855560643e+01
ITEM: ATOMS id type x y z
357 2 3.06823 2.24024 0.637031
57 1 1.6876 3.55112 4.32764
139 1 5.88978 0.617117 1.3516
211 2 6.00845 1.57756 -0.0914768
183 2 5.77159 0.950355 3.06288
170 2 5.55204 4.14026 4.67676
134 1 5.34047 5.39391 1.25
60 1 2.762 3.52036 1.20169
35 1 5.96285 3.18027 3.27819
314 2 1.23167 -0.146014 0.327532
331 2 8.18282 2.74488 0.731066
449 2 2.17854 3.22054 2.72145
91 1 2.73475 0.616408 0.360185
417 2 3.73103 4.96536 1.28423
225 2 4.25167 0.0743612 0.863881
332 2 5.79926 3.6848 1.57361
293 2 1.60941 4.21828 0.327077
352 2 7.67611 2.78206 3.48689
324 2 3.53026 -0.0949155 3.42419
44 1 8.92828 2.8875 2.27093
184 2 6.35433 5.99264 2.68134
222 2 9.0777 4.7424 2.13656
390 2 8.39263 -0.163742 4.11143
76 1 2.83946 3.42957 7.06933
130 1 6.13007 1.62354 7.6037
290 2 2.19268 1.38618 7.24296
365 2 2.89116 3.64055 5.47246
196 2 6.59727 3.201 7.38589
376 2 8.09726 4.99112 8.69667
431 2 3.60001 3.35449 8.69688
220 2 0.612339 4.50466 7.48818
115 1 6.91931 4.89583 7.445
385 2 6.86743 0.57223 6.64679
14 1 8.29578 -0.0168065 6.01122
254 2 4.71138 1.68226 6.63667
235 2 0.651974 0.405712 5.31776
401 2 5.59792 5.6781 7.5197
434 2 5.43821 1.76965 9.14614
217 2 7.20227 5.67367 5.95093
106 1 1.34156 0.0474687 7.38193
344 2 -0.0486255 0.0588226 8.22187
310 2 0.290477 2.70377 4.97325
281 2 2.76848 0.17329 9.02419
112 1 6.3678 5.6877 4.60526
143 1 4.9623 0.126892 4.72105
65 1 3.43095 0.898196 12.2569
94 1 3.80435 1.86042 9.32955
1 1 4.99799 5.11451 11.6267
244 2 3.41924 2.26187 10.9323
100 1 6.04353 2.23929 13.1452
103 1 1.76423 5.01319 11.5539
328 2 1.54914 5.83914 10.1052
274 2 3.29195 4.7816 11.782
236 2 5.9672 3.65186 11.9135
381 2 4.66996 1.2748 13.5592
162 2 6.38788 1.05846 12.0905
270 2 1.87186 1.10562 13.2281
433 2 0.0291685 0.990456 10.7599
178 2 0.141288 3.9533 11.728
40 1 -0.10099 2.27794 11.6934
380 2 9.11238 0.204037 9.48687
13 1 3.29364 0.5603 16.5072
349 2 9.22584 3.58482 18.1784
383 2 9.30556 4.89329 16.0819
252 2 4.34548 1.91858 16.4914
126 1 0.813849 1.40013 14.8322
202 2 6.18456 2.83276 14.725
163 2 1.42927 4.46268 17.3359
101 1 5.15227 3.27345 15.9736
442 2 1.77435 0.927674 16.0603
187 2 0.0418647 -0.186931 14.8965
151 2 4.10208 4.48754 16.0491
228 2 0.873324 3.01212 15.3257
320 2 9.16374 1.97704 15.0147
179 2 2.9234 0.609732 18.2217
135 1 0.647822 4.55527 16.0182
128 1 1.2498 5.10873 18.6038
201 2 1.18541 6.21221 15.2997
51 1 8.68032 2.35012 18.7156
342 2 4.99526 9.49088 1.58819
55 1 5.97215 10.0682 2.83573
21 1 0.597911 8.11477 0.182047
335 2 1.51314 6.66225 3.786