       N       E                     dE             d eps       ncg     rms          rms(c)
RMM:   1     0.554886837142E+05    0.55489E+05   -0.99215E+05  1440   0.153E+03
RMM:   2     0.310129090501E+05   -0.24476E+05   -0.26153E+05  1440   0.731E+02
RMM:   3     0.139341814912E+05   -0.17079E+05   -0.87678E+04  1440   0.442E+02
RMM:   4     0.789010485170E+04   -0.60441E+04   -0.43840E+04  1440   0.315E+02
RMM:   5     0.467936405024E+04   -0.32107E+04   -0.27636E+04  1440   0.256E+02
RMM:   6     0.255216167758E+04   -0.21272E+04   -0.19801E+04  1440   0.224E+02
RMM:   7     0.971064770947E+03   -0.15811E+04   -0.15244E+04  1440   0.202E+02
RMM:   8    -0.255422758455E+03   -0.12265E+04   -0.12053E+04  1440   0.183E+02
RMM:   9    -0.282259281511E+04   -0.25672E+04   -0.22512E+04  3995   0.165E+02
RMM:  10    -0.388566375476E+04   -0.10631E+04   -0.59760E+03  4188   0.847E+01
RMM:  11    -0.396848632956E+04   -0.82823E+02   -0.94743E+02  3247   0.464E+01
RMM:  12    -0.401721109900E+04   -0.48725E+02   -0.48286E+02  4080   0.140E+01    0.131E+02
RMM:  13    -0.345160345643E+04    0.56561E+03   -0.17980E+03  3179   0.875E+01    0.448E+01
RMM:  14    -0.351454779679E+04   -0.62944E+02   -0.12002E+03  3795   0.356E+01    0.296E+01
RMM:  15    -0.350692261064E+04    0.76252E+01   -0.29702E+01  3163   0.109E+01    0.111E+01
RMM:  16    -0.351201544242E+04   -0.50928E+01   -0.25840E+01  3302   0.912E+00    0.121E+01
RMM:  17    -0.350849929633E+04    0.35161E+01   -0.31426E+01  3179   0.110E+01    0.268E+00
RMM:  18    -0.350935838976E+04   -0.85909E+00   -0.10962E+01  4527   0.309E+00    0.224E+00
RMM:  19    -0.350923414214E+04    0.12425E+00   -0.77554E-01  3327   0.167E+00    0.633E-01
RMM:  20    -0.350926623049E+04   -0.32088E-01   -0.48899E-01  3892   0.943E-01    0.740E-01
RMM:  21    -0.350926007967E+04    0.61508E-02   -0.72871E-02  3492   0.463E-01    0.584E-01
RMM:  22    -0.350925438021E+04    0.56995E-02   -0.73002E-02  2988   0.538E-01    0.148E-01
RMM:  23    -0.350925509483E+04   -0.71462E-03   -0.18211E-02  3938   0.214E-01    0.713E-02
RMM:  24    -0.350925515927E+04   -0.64441E-04   -0.30481E-03  3499   0.973E-02    0.294E-02
RMM:  25    -0.350925531792E+04   -0.15865E-03   -0.16731E-03  3789   0.503E-02    0.367E-02
RMM:  26    -0.350925536527E+04   -0.47349E-04   -0.31452E-04  3206   0.301E-02    0.528E-02
RMM:  27    -0.350925528153E+04    0.83736E-04   -0.37273E-04  3041   0.382E-02    0.470E-03
RMM:  28    -0.350925530147E+04   -0.19937E-04   -0.18717E-04  3026   0.136E-02    0.123E-02
RMM:  29    -0.350925530091E+04    0.55900E-06   -0.27302E-05  1909   0.121E-02
    1 T=  5002. E= -.32819399E+04 F= -.35722501E+04 E0= -.35722492E+04  EK= 0.29031E+03 SP= 0.00E+00 SK= 0.42E-06
       N       E                     dE             d eps       ncg     rms          rms(c)
RMM:   1    -0.350047482942E+04    0.87805E+01   -0.10018E+03  3780   0.372E+01    0.624E+00
RMM:   2    -0.350492888346E+04   -0.44541E+01   -0.76284E+01  3368   0.217E+01    0.432E+00
RMM:   3    -0.350498653465E+04   -0.57651E-01   -0.54095E+00  4015   0.299E+00    0.365E+00
RMM:   4    -0.350448190713E+04    0.50463E+00   -0.18830E+00  3380   0.238E+00    0.104E+00
RMM:   5    -0.350453073017E+04   -0.48823E-01   -0.11216E+00  4033   0.978E-01    0.134E+00
RMM:   6    -0.350447078425E+04    0.59946E-01   -0.16231E-01  3374   0.808E-01    0.494E-01
RMM:   7    -0.350449653915E+04   -0.25755E-01   -0.35493E-01  4068   0.704E-01    0.840E-01
RMM:   8    -0.350447196956E+04    0.24570E-01   -0.54366E-02  2981   0.537E-01    0.256E-01
RMM:   9    -0.350448079577E+04   -0.88262E-02   -0.12402E-01  3949   0.447E-01    0.471E-01
RMM:  10    -0.350447298722E+04    0.78085E-02   -0.19951E-02  2976   0.361E-01    0.108E-01
RMM:  11    -0.350447385764E+04   -0.87042E-03   -0.14127E-02  3899   0.132E-01    0.103E-01
RMM:  12    -0.350447376966E+04    0.87987E-04   -0.15750E-03  2925   0.958E-02    0.827E-02
RMM:  13    -0.350447358597E+04    0.18368E-03   -0.16751E-03  3048   0.789E-02    0.256E-02
RMM:  14    -0.350447360640E+04   -0.20421E-04   -0.38393E-04  3873   0.241E-02    0.239E-02
RMM:  15    -0.350447359991E+04    0.64854E-05   -0.95709E-05  2260   0.216E-02
    2 T=  4921. E= -.32818842E+04 F= -.35674681E+04 E0= -.35674671E+04  EK= 0.28558E+03 SP= 0.41E-02 SK= 0.11E-03
       N       E                     dE             d eps       ncg     rms          rms(c)
RMM:   1    -0.348963313961E+04    0.14840E+02   -0.25287E+01  2893   0.121E+01    0.991E-01
RMM:   2    -0.349020053662E+04   -0.56740E+00   -0.58565E+00  4080   0.236E+00    0.850E-01
RMM:   3    -0.349020509466E+04   -0.45580E-02   -0.19332E-01  3195   0.104E+00    0.885E-01
RMM:   4    -0.349020831271E+04   -0.32181E-02   -0.12123E-01  4378   0.279E-01    0.708E-01
RMM:   5    -0.349019902203E+04    0.92907E-02   -0.87073E-02  3070   0.566E-01    0.299E-01
RMM:   6    -0.349020551920E+04   -0.64972E-02   -0.52014E-02  3784   0.240E-01    0.495E-01
RMM:   7    -0.349020679252E+04   -0.12733E-02   -0.10869E-02  3137   0.249E-01    0.574E-01
RMM:   8    -0.349021121506E+04   -0.44225E-02   -0.86260E-03  3856   0.123E-01    0.745E-01
RMM:   9    -0.349019854370E+04    0.12671E-01   -0.24984E-02  3155   0.333E-01    0.280E-01
RMM:  10    -0.349019944623E+04   -0.90253E-03   -0.47517E-02  4080   0.299E-01    0.238E-01
RMM:  11    -0.349020023028E+04   -0.78405E-03   -0.77260E-03  3675   0.111E-01    0.295E-01
RMM:  12    -0.349020041417E+04   -0.18389E-03   -0.22626E-03  3637   0.321E-02    0.334E-01
RMM:  13    -0.349020060955E+04   -0.19538E-03   -0.76628E-04  2519   0.579E-02    0.344E-01
RMM:  14    -0.349020064219E+04   -0.32639E-04   -0.51180E-05  2098   0.893E-03    0.349E-01
RMM:  15    -0.349020150244E+04   -0.86026E-03   -0.42105E-04  3000   0.389E-02    0.404E-01
RMM:  16    -0.349020850881E+04   -0.70064E-02   -0.10804E-02  3180   0.198E-01    0.698E-01
RMM:  17    -0.349021250142E+04   -0.39926E-02   -0.81383E-03  3982   0.972E-02    0.849E-01
RMM:  18    -0.349021164460E+04    0.85681E-03   -0.10880E-03  3098   0.727E-02    0.844E-01
RMM:  19    -0.349021601219E+04   -0.43676E-02   -0.24168E-03  3372   0.784E-02    0.968E-01
RMM:  20    -0.349020922629E+04    0.67859E-02   -0.23668E-03  3134   0.115E-01    0.800E-01
RMM:  21    -0.349019985725E+04    0.93690E-02   -0.17833E-02  3170   0.251E-01    0.415E-01
RMM:  22    -0.349019869493E+04    0.11623E-02   -0.16481E-02  3952   0.148E-01    0.173E-01
RMM:  23    -0.349019875218E+04   -0.57253E-04   -0.19917E-03  3247   0.875E-02    0.132E-01
RMM:  24    -0.349019871623E+04    0.35952E-04   -0.17080E-03  3844   0.453E-02    0.645E-02
RMM:  25    -0.349019870750E+04    0.87281E-05   -0.34898E-04  2943   0.396E-02    0.574E-02
RMM:  26    -0.349019875994E+04   -0.52435E-04   -0.71713E-05  2270   0.113E-02    0.654E-02
RMM:  27    -0.349019881437E+04   -0.54439E-04   -0.70198E-05  2545   0.180E-02    0.695E-02
RMM:  28    -0.349019900954E+04   -0.19517E-03   -0.46068E-04  3728   0.314E-02    0.993E-02
RMM:  29    -0.349019914837E+04   -0.13882E-03   -0.22715E-04  3575   0.212E-02    0.119E-01
RMM:  30    -0.349019925596E+04   -0.10759E-03   -0.15736E-04  3383   0.144E-02    0.138E-01
RMM:  31    -0.349019930636E+04   -0.50405E-04   -0.42414E-05  2156   0.142E-02    0.145E-01
RMM:  32    -0.349019938431E+04   -0.77943E-04   -0.48288E-05  2155   0.101E-02    0.155E-01
RMM:  33    -0.349019943459E+04   -0.50287E-04   -0.28749E-05  1740   0.861E-03    0.162E-01
RMM:  34    -0.349019946526E+04   -0.30669E-04   -0.20774E-05  1680   0.811E-03    0.166E-01
RMM:  35    -0.349019950877E+04   -0.43508E-04   -0.22654E-05  1678   0.891E-03    0.172E-01
RMM:  36    -0.349019951329E+04   -0.45145E-05   -0.13566E-05  1674   0.700E-03
    3 T=  4679. E= -.32816996E+04 F= -.35531957E+04 E0= -.35531942E+04  EK= 0.27156E+03 SP= -.68E-01 SK= 0.53E-02
       N       E                     dE             d eps       ncg     rms          rms(c)
RMM:   1    -0.346825105718E+04    0.21948E+02   -0.15403E+01  4067   0.570E+00    0.972E-01
RMM:   2    -0.346851436636E+04   -0.26331E+00   -0.29646E+00  3621   0.224E+00    0.346E-01
RMM:   3    -0.346862848871E+04   -0.11412E+00   -0.11587E+00  4034   0.622E-01    0.561E-01
RMM:   4    -0.346863395584E+04   -0.54671E-02   -0.17020E-01  2946   0.106E+00    0.203E-01
RMM:   5    -0.346863644471E+04   -0.24889E-02   -0.33670E-02  4117   0.206E-01    0.203E-01
RMM:   6    -0.346863614715E+04    0.29756E-03   -0.64242E-03  3948   0.959E-02    0.168E-01
RMM:   7    -0.346863551948E+04    0.62767E-03   -0.22329E-03  3263   0.901E-02    0.598E-02
RMM:   8    -0.346863558279E+04   -0.63313E-04   -0.19488E-03  3928   0.554E-02    0.207E-02
RMM:   9    -0.346863560165E+04   -0.18856E-04   -0.27654E-04  3174   0.270E-02    0.236E-02
RMM:  10    -0.346863558778E+04    0.13870E-04   -0.16422E-04  2816   0.283E-02    0.121E-02
RMM:  11    -0.346863559350E+04   -0.57230E-05   -0.42858E-05  2111   0.795E-03
    4 T=  4319. E= -.32813944E+04 F= -.35316354E+04 E0= -.35316330E+04  EK= 0.25064E+03 SP= -.46E+00 SK= 0.53E-01
       N       E                     dE             d eps       ncg     rms          rms(c)
RMM:   1    -0.344303746094E+04    0.25598E+02   -0.13891E+01  4061   0.534E+00    0.527E-01
RMM:   2    -0.344333876676E+04   -0.30131E+00   -0.30984E+00  3700   0.184E+00    0.517E-01
RMM:   3    -0.344339323876E+04   -0.54472E-01   -0.60496E-01  4196   0.465E-01    0.507E-01
RMM:   4    -0.344339989769E+04   -0.66589E-02   -0.15431E-01  2981   0.991E-01    0.239E-01
RMM:   5    -0.344340190764E+04   -0.20100E-02   -0.34094E-02  3926   0.254E-01    0.292E-01
RMM:   6    -0.344340148805E+04    0.41959E-03   -0.76089E-03  4020   0.111E-01    0.241E-01
RMM:   7    -0.344340034204E+04    0.11460E-02   -0.46486E-03  3101   0.141E-01    0.710E-02
RMM:   8    -0.344340043573E+04   -0.93696E-04   -0.21191E-03  3816   0.584E-02    0.272E-02
RMM:   9    -0.344340043230E+04    0.34339E-05   -0.31533E-04  2929   0.393E-02    0.291E-02
RMM:  10    -0.344340048337E+04   -0.51070E-04   -0.24421E-04  3547   0.175E-02    0.430E-02
RMM:  11    -0.344340045044E+04    0.32925E-04   -0.11270E-04  2600   0.236E-02    0.140E-02
RMM:  12    -0.344340045836E+04   -0.79152E-05   -0.12035E-04  2997   0.132E-02    0.495E-03
RMM:  13    -0.344340045808E+04    0.28114E-06   -0.11162E-05  1681   0.786E-03
    5 T=  3905. E= -.32810234E+04 F= -.35064061E+04 E0= -.35064019E+04  EK= 0.22665E+03 SP= -.15E+01 SK= 0.26E+00
       N       E                     dE             d eps       ncg     rms          rms(c)
RMM:   1    -0.341871564761E+04    0.24685E+02   -0.90478E+00  4037   0.424E+00    0.599E-01
RMM:   2    -0.341889137153E+04   -0.17572E+00   -0.18752E+00  3692   0.170E+00    0.300E-01
RMM:   3    -0.341895686830E+04   -0.65497E-01   -0.67250E-01  4100   0.456E-01    0.463E-01
RMM:   4    -0.341896099433E+04   -0.41260E-02   -0.91789E-02  2983   0.793E-01    0.264E-01
RMM:   5    -0.341896073892E+04    0.25542E-03   -0.17197E-02  3771   0.201E-01    0.102E-01
RMM:   6    -0.341896212835E+04   -0.13894E-02   -0.12310E-02  4249   0.114E-01    0.202E-01
RMM:   7    -0.341896124680E+04    0.88155E-03   -0.12306E-03  3151   0.668E-02    0.127E-01
RMM:   8    -0.341896099429E+04    0.25252E-03   -0.27723E-03  3683   0.773E-02    0.230E-02
RMM:   9    -0.341896103458E+04   -0.40297E-04   -0.30707E-04  3163   0.270E-02    0.190E-02
RMM:  10    -0.341896104726E+04   -0.12679E-04   -0.10541E-04  2390   0.119E-02    0.142E-02
RMM:  11    -0.341896105096E+04   -0.36967E-05   -0.31618E-05  1951   0.136E-02
    6 T=  3517. E= -.32806822E+04 F= -.34819746E+04 E0= -.34819677E+04  EK= 0.20414E+03 SP= -.37E+01 SK= 0.83E+00
       N       E                     dE             d eps       ncg     rms          rms(c)
RMM:   1    -0.339930586391E+04    0.19655E+02   -0.57009E+00  4054   0.319E+00    0.342E-01
RMM:   2    -0.339939959686E+04   -0.93733E-01   -0.96486E-01  3451   0.139E+00    0.224E-01
RMM:   3    -0.339944917764E+04   -0.49581E-01   -0.50473E-01  4024   0.383E-01    0.337E-01
RMM:   4    -0.339945506409E+04   -0.58864E-02   -0.78834E-02  2958   0.686E-01    0.263E-01
RMM:   5    -0.339945516238E+04   -0.98297E-04   -0.73585E-03  4055   0.962E-02    0.206E-01
RMM:   6    -0.339945462932E+04    0.53306E-03   -0.44698E-03  4093   0.849E-02    0.965E-02
RMM:   7    -0.339945461085E+04    0.18469E-04   -0.11040E-03  3591   0.510E-02    0.654E-02
RMM:   8    -0.339945457575E+04    0.35101E-04   -0.43114E-04  3672   0.264E-02    0.379E-02
RMM:   9    -0.339945456455E+04    0.11200E-04   -0.94461E-05  2495   0.186E-02    0.294E-02
RMM:  10    -0.339945454887E+04    0.15686E-04   -0.61553E-05  2383   0.109E-02    0.207E-02
RMM:  11    -0.339945454291E+04    0.59562E-05   -0.12629E-05  1688   0.848E-03
    7 T=  3227. E= -.32804807E+04 F= -.34624783E+04 E0= -.34624676E+04  EK= 0.18728E+03 SP= -.73E+01 SK= 0.20E+01
       N       E                     dE             d eps       ncg     rms          rms(c)
RMM:   1    -0.338719021867E+04    0.12264E+02   -0.43524E+00  4231   0.241E+00    0.217E-01
RMM:   2    -0.338723943980E+04   -0.49221E-01   -0.50346E-01  3314   0.116E+00    0.160E-01
RMM:   3    -0.338727464375E+04   -0.35204E-01   -0.35769E-01  3907   0.355E-01    0.173E-01
RMM:   4    -0.338727826088E+04   -0.36171E-02   -0.50377E-02  3127   0.534E-01    0.123E-01
RMM:   5    -0.338727850043E+04   -0.23955E-03   -0.49271E-03  4107   0.780E-02    0.674E-02
RMM:   6    -0.338727856683E+04   -0.66397E-04   -0.16552E-03  3951   0.522E-02    0.397E-02
RMM:   7    -0.338727855026E+04    0.16573E-04   -0.32393E-04  3585   0.265E-02    0.306E-02
RMM:   8    -0.338727853918E+04    0.11073E-04   -0.20009E-04  3261   0.234E-02    0.159E-02
RMM:   9    -0.338727853365E+04    0.55309E-05   -0.49787E-05  2104   0.129E-02
    8 T=  3076. E= -.32804719E+04 F= -.34503145E+04 E0= -.34502992E+04  EK= 0.17852E+03 SP= -.13E+02 SK= 0.40E+01
       N       E                     dE             d eps       ncg     rms          rms(c)
RMM:   1    -0.338226658664E+04    0.50120E+01   -0.40054E+00  4234   0.236E+00    0.214E-01
RMM:   2    -0.338231484786E+04   -0.48261E-01   -0.49346E-01  3350   0.109E+00    0.142E-01
RMM:   3    -0.338234805453E+04   -0.33207E-01   -0.33681E-01  3873   0.344E-01    0.157E-01
RMM:   4    -0.338235175706E+04   -0.37025E-02   -0.50537E-02  3148   0.506E-01    0.120E-01
RMM:   5    -0.338235199198E+04   -0.23492E-03   -0.50541E-03  4122   0.805E-02    0.574E-02
RMM:   6    -0.338235212995E+04   -0.13797E-03   -0.14735E-03  3970   0.465E-02    0.455E-02
RMM:   7    -0.338235209046E+04    0.39492E-04   -0.30531E-04  3191   0.278E-02    0.239E-02
RMM:   8    -0.338235209482E+04   -0.43575E-05   -0.26138E-04  3383   0.244E-02    0.177E-02
RMM:   9    -0.338235208916E+04    0.56609E-05   -0.35498E-05  1941   0.129E-02
    9 T=  3067. E= -.32806176E+04 F= -.34454022E+04 E0= -.34453816E+04  EK= 0.17798E+03 SP= -.20E+02 SK= 0.68E+01
       N       E                     dE             d eps       ncg     rms          rms(c)
RMM:   1    -0.338242829310E+04   -0.76198E-01   -0.40190E+00  3988   0.284E+00    0.269E-01
RMM:   2    -0.338251615558E+04   -0.87862E-01   -0.89145E-01  3636   0.107E+00    0.194E-01
RMM:   3    -0.338254539387E+04   -0.29238E-01   -0.30004E-01  4059   0.289E-01    0.235E-01
RMM:   4    -0.338254879737E+04   -0.34035E-02   -0.53591E-02  3043   0.536E-01    0.125E-01
RMM:   5    -0.338254942053E+04   -0.62316E-03   -0.90545E-03  3824   0.135E-01    0.127E-01
RMM:   6    -0.338254966396E+04   -0.24343E-03   -0.29636E-03  3818   0.535E-02    0.146E-01
RMM:   7    -0.338254914347E+04    0.52049E-03   -0.16748E-03  2977   0.841E-02    0.487E-02
RMM:   8    -0.338254918050E+04   -0.37026E-04   -0.84311E-04  3934   0.304E-02    0.186E-02
RMM:   9    -0.338254918610E+04   -0.56067E-05   -0.79702E-05  2409   0.147E-02
   10 T=  3166. E= -.32808248E+04 F= -.34456150E+04 E0= -.34455881E+04  EK= 0.18377E+03 SP= -.29E+02 SK= 0.10E+02
       N       E                     dE             d eps       ncg     rms          rms(c)
RMM:   1    -0.338471423352E+04   -0.21651E+01   -0.43486E+00  3703   0.336E+00    0.304E-01
RMM:   2    -0.338484993846E+04   -0.13570E+00   -0.13722E+00  3765   0.109E+00    0.248E-01
RMM:   3    -0.338487348080E+04   -0.23542E-01   -0.24969E-01  4219   0.312E-01    0.273E-01
RMM:   4    -0.338487535562E+04   -0.18748E-02   -0.41364E-02  3188   0.444E-01    0.148E-01
RMM:   5    -0.338487615347E+04   -0.79786E-03   -0.12212E-02  3786   0.159E-01    0.172E-01
RMM:   6    -0.338487626033E+04   -0.10686E-03   -0.34386E-03  3741   0.627E-02    0.181E-01
RMM:   7    -0.338487546459E+04    0.79574E-03   -0.29123E-03  3010   0.116E-01    0.421E-02
RMM:   8    -0.338487553993E+04   -0.75342E-04   -0.10639E-03  3727   0.330E-02    0.204E-02
RMM:   9    -0.338487555139E+04   -0.11456E-04   -0.12805E-04  2489   0.261E-02    0.167E-02
RMM:  10    -0.338487554662E+04    0.47661E-05   -0.21407E-05  1738   0.865E-03
   11 T=  3328. E= -.32810074E+04 F= -.34479584E+04 E0= -.34479229E+04  EK= 0.19314E+03 SP= -.40E+02 SK= 0.14E+02
       N       E                     dE             d eps       ncg     rms          rms(c)
RMM:   1    -0.338639678563E+04   -0.15212E+01   -0.47691E+00  3583   0.368E+00    0.300E-01
RMM:   2    -0.338656172837E+04   -0.16494E+00   -0.16601E+00  3779   0.110E+00    0.273E-01
RMM:   3    -0.338658372726E+04   -0.21999E-01   -0.23917E-01  4167   0.353E-01    0.284E-01
RMM:   4    -0.338658584712E+04   -0.21199E-02   -0.42751E-02  3415   0.399E-01    0.171E-01
RMM:   5    -0.338658612503E+04   -0.27791E-03   -0.11052E-02  3688   0.160E-01    0.143E-01
RMM:   6    -0.338658658055E+04   -0.45552E-03   -0.46438E-03  3839   0.650E-02    0.174E-01
RMM:   7    -0.338658583846E+04    0.74209E-03   -0.14605E-03  2970   0.787E-02    0.761E-02
RMM:   8    -0.338658582192E+04    0.16542E-04   -0.15571E-03  3870   0.481E-02    0.229E-02
RMM:   9    -0.338658583283E+04   -0.10905E-04   -0.11708E-04  2756   0.202E-02    0.158E-02
RMM:  10    -0.338658583763E+04   -0.48032E-05   -0.76284E-05  2565   0.111E-02
   12 T=  3506. E= -.32811207E+04 F= -.34496868E+04 E0= -.34496383E+04  EK= 0.20348E+03 SP= -.53E+02 SK= 0.18E+02
       N       E                     dE             d eps       ncg     rms          rms(c)
RMM:   1    -0.338559574686E+04    0.99009E+00   -0.49221E+00  3583   0.372E+00    0.302E-01
RMM:   2    -0.338576679839E+04   -0.17105E+00   -0.17204E+00  3806   0.112E+00    0.266E-01
RMM:   3    -0.338578967331E+04   -0.22875E-01   -0.24911E-01  4166   0.357E-01    0.272E-01
RMM:   4    -0.338579151093E+04   -0.18376E-02   -0.40623E-02  3434   0.387E-01    0.162E-01
RMM:   5    -0.338579170126E+04   -0.19033E-03   -0.10206E-02  3743   0.149E-01    0.135E-01
RMM:   6    -0.338579203028E+04   -0.32902E-03   -0.40621E-03  3793   0.603E-02    0.154E-01
RMM:   7    -0.338579142748E+04    0.60280E-03   -0.16132E-03  2964   0.831E-02    0.537E-02
RMM:   8    -0.338579146499E+04   -0.37508E-04   -0.11599E-03  3865   0.379E-02    0.229E-02
RMM:   9    -0.338579146753E+04   -0.25353E-05   -0.76277E-05  2391   0.184E-02
   13 T=  3668. E= -.32811561E+04 F= -.34489112E+04 E0= -.34488424E+04  EK= 0.21288E+03 SP= -.67E+02 SK= 0.22E+02
       N       E                     dE             d eps       ncg     rms          rms(c)
RMM:   1    -0.338141935925E+04    0.43721E+01   -0.49270E+00  3788   0.342E+00    0.321E-01
RMM:   2    -0.338155903619E+04   -0.13968E+00   -0.14122E+00  3776   0.117E+00    0.219E-01
RMM:   3    -0.338158912830E+04   -0.30092E-01   -0.31617E-01  4064   0.333E-01    0.247E-01
RMM:   4    -0.338159221301E+04   -0.30847E-02   -0.56317E-02  3221   0.512E-01    0.125E-01
RMM:   5    -0.338159271792E+04   -0.50491E-03   -0.97611E-03  3881   0.130E-01    0.140E-01
RMM:   6    -0.338159284474E+04   -0.12683E-03   -0.30638E-03  3824   0.567E-02    0.142E-01
RMM:   7    -0.338159236683E+04    0.47792E-03   -0.20094E-03  2993   0.930E-02    0.365E-02
RMM:   8    -0.338159242290E+04   -0.56068E-04   -0.85868E-04  3719   0.304E-02    0.255E-02
RMM:   9    -0.338159242397E+04   -0.10764E-05   -0.11130E-04  2498   0.229E-02    0.173E-02
RMM:  10    -0.338159242350E+04    0.47410E-06   -0.57811E-05  2250   0.105E-02
   14 T=  3796. E= -.32811230E+04 F= -.34447314E+04 E0= -.34446316E+04  EK= 0.22033E+03 SP= -.83E+02 SK= 0.26E+02
       N       E                     dE             d eps       ncg     rms          rms(c)
RMM:   1    -0.337381208636E+04    0.77803E+01   -0.56816E+00  4192   0.301E+00    0.243E-01
RMM:   2    -0.337389496778E+04   -0.82881E-01   -0.83946E-01  3446   0.126E+00    0.166E-01
RMM:   3    -0.337393753748E+04   -0.42570E-01   -0.43387E-01  3780   0.407E-01    0.190E-01
RMM:   4    -0.337394565309E+04   -0.81156E-02   -0.10085E-01  3162   0.682E-01    0.136E-01
RMM:   5    -0.337394585475E+04   -0.20166E-03   -0.64863E-03  4060   0.891E-02    0.768E-02
RMM:   6    -0.337394586867E+04   -0.13920E-04   -0.21306E-03  3927   0.517E-02    0.259E-02
RMM:   7    -0.337394591406E+04   -0.45393E-04   -0.51871E-04  3229   0.362E-02    0.256E-02
RMM:   8    -0.337394590026E+04    0.13802E-04   -0.18819E-04  3173   0.222E-02    0.127E-02
RMM:   9    -0.337394589945E+04    0.80952E-06   -0.61584E-05  2217   0.122E-02
   15 T=  3888. E= -.32810377E+04 F= -.34371046E+04 E0= -.34369611E+04  EK= 0.22562E+03 SP= -.99E+02 SK= 0.30E+02
       N       E                     dE             d eps       ncg     rms          rms(c)
RMM:   1    -0.336334237402E+04    0.10604E+02   -0.59656E+00  4462   0.260E+00    0.267E-01
RMM:   2    -0.336339689096E+04   -0.54517E-01   -0.57231E-01  3575   0.120E+00    0.144E-01
RMM:   3    -0.336342803095E+04   -0.31140E-01   -0.32165E-01  3962   0.376E-01    0.122E-01
RMM:   4    -0.336343082559E+04   -0.27946E-02   -0.41750E-02  3573   0.427E-01    0.890E-02
RMM:   5    -0.336343100885E+04   -0.18326E-03   -0.39291E-03  4230   0.651E-02    0.366E-02
RMM:   6    -0.336343105942E+04   -0.50568E-04   -0.73103E-04  3894   0.303E-02    0.185E-02
RMM:   7    -0.336343106111E+04   -0.16852E-05   -0.16344E-04  2663   0.179E-02    0.923E-03
RMM:   8    -0.336343106353E+04   -0.24288E-05   -0.57433E-05  2103   0.133E-02
   16 T=  3949. E= -.32809198E+04 F= -.34266097E+04 E0= -.34264104E+04  EK= 0.22919E+03 SP= -.12E+03 SK= 0.33E+02
       N       E                     dE             d eps       ncg     rms          rms(c)
RMM:   1    -0.335090808967E+04    0.12523E+02   -0.63219E+00  4518   0.249E+00    0.292E-01
RMM:   2    -0.335096397076E+04   -0.55881E-01   -0.59711E-01  3778   0.126E+00    0.172E-01
RMM:   3    -0.335098825396E+04   -0.24283E-01   -0.25665E-01  4066   0.282E-01    0.123E-01
RMM:   4    -0.335099163774E+04   -0.33838E-02   -0.45914E-02  3628   0.442E-01    0.880E-02
RMM:   5    -0.335099183451E+04   -0.19677E-03   -0.35527E-03  4039   0.702E-02    0.391E-02
RMM:   6    -0.335099190162E+04   -0.67113E-04   -0.88599E-04  3862   0.320E-02    0.219E-02
RMM:   7    -0.335099190829E+04   -0.66705E-05   -0.19225E-04  2576   0.209E-02    0.115E-02
RMM:   8    -0.335099191083E+04   -0.25321E-05   -0.62564E-05  2169   0.132E-02
   17 T=  3995. E= -.32807918E+04 F= -.34141910E+04 E0= -.34139253E+04  EK= 0.23184E+03 SP= -.14E+03 SK= 0.37E+02
       N       E                     dE             d eps       ncg     rms          rms(c)
RMM:   1    -0.333758005255E+04    0.13412E+02   -0.65615E+00  4556   0.259E+00    0.289E-01
RMM:   2    -0.333763788834E+04   -0.57836E-01   -0.61587E-01  3827   0.117E+00    0.174E-01
RMM:   3    -0.333766308907E+04   -0.25201E-01   -0.26694E-01  3910   0.310E-01    0.130E-01
RMM:   4    -0.333766550349E+04   -0.24144E-02   -0.36296E-02  3676   0.391E-01    0.846E-02
RMM:   5    -0.333766567869E+04   -0.17519E-03   -0.31643E-03  4189   0.657E-02    0.356E-02
RMM:   6    -0.333766574047E+04   -0.61789E-04   -0.81579E-04  3640   0.283E-02    0.199E-02
RMM:   7    -0.333766574529E+04   -0.48170E-05   -0.17265E-04  2597   0.251E-02    0.976E-03
RMM:   8    -0.333766574722E+04   -0.19263E-05   -0.46331E-05  1988   0.114E-02
   18 T=  4041. E= -.32806714E+04 F= -.34008859E+04 E0= -.34005472E+04  EK= 0.23455E+03 SP= -.16E+03 SK= 0.41E+02
       N       E                     dE             d eps       ncg     rms          rms(c)
RMM:   1    -0.332423150020E+04    0.13434E+02   -0.62057E+00  4519   0.260E+00    0.280E-01
RMM:   2    -0.332429048069E+04   -0.58980E-01   -0.62090E-01  3744   0.117E+00    0.163E-01
RMM:   3    -0.332431922142E+04   -0.28741E-01   -0.30043E-01  3901   0.339E-01    0.133E-01
RMM:   4    -0.332432176421E+04   -0.25428E-02   -0.38649E-02  3603   0.408E-01    0.871E-02
RMM:   5    -0.332432196480E+04   -0.20059E-03   -0.35482E-03  4251   0.675E-02    0.379E-02
RMM:   6    -0.332432202959E+04   -0.64790E-04   -0.85653E-04  3690   0.288E-02    0.213E-02
RMM:   7    -0.332432203438E+04   -0.47942E-05   -0.19394E-04  2866   0.259E-02    0.103E-02
RMM:   8    -0.332432203730E+04   -0.29156E-05   -0.49711E-05  2009   0.111E-02
   19 T=  4104. E= -.32805708E+04 F= -.33875640E+04 E0= -.33871503E+04  EK= 0.23818E+03 SP= -.18E+03 SK= 0.45E+02
       N       E                     dE             d eps       ncg     rms          rms(c)
RMM:   1    -0.331137668082E+04    0.12945E+02   -0.60308E+00  4500   0.260E+00    0.276E-01
RMM:   2    -0.331143974043E+04   -0.63060E-01   -0.65850E-01  3737   0.116E+00    0.162E-01
RMM:   3    -0.331146911832E+04   -0.29378E-01   -0.30637E-01  3814   0.369E-01    0.137E-01
RMM:   4    -0.331147155927E+04   -0.24410E-02   -0.38149E-02  3591   0.412E-01    0.812E-02
RMM:   5    -0.331147181437E+04   -0.25509E-03   -0.37212E-03  4343   0.661E-02    0.396E-02
RMM:   6    -0.331147187975E+04   -0.65383E-04   -0.84977E-04  3566   0.293E-02    0.241E-02
RMM:   7    -0.331147188652E+04   -0.67722E-05   -0.22821E-04  2975   0.288E-02    0.115E-02
RMM:   8    -0.331147189025E+04   -0.37222E-05   -0.56392E-05  2101   0.115E-02
   20 T=  4192. E= -.32804929E+04 F= -.33747367E+04 E0= -.33742495E+04  EK= 0.24331E+03 SP= -.20E+03 SK= 0.48E+02
       N       E                     dE             d eps       ncg     rms          rms(c)
RMM:   1    -0.329911365226E+04    0.12358E+02   -0.55171E+00  4447   0.258E+00    0.277E-01
RMM:   2    -0.329918389743E+04   -0.70245E-01   -0.72458E-01  3821   0.110E+00    0.168E-01
RMM:   3    -0.329921115933E+04   -0.27262E-01   -0.28567E-01  3837   0.354E-01    0.144E-01
RMM:   4    -0.329921298271E+04   -0.18234E-02   -0.32234E-02  3613   0.391E-01    0.720E-02
RMM:   5    -0.329921323140E+04   -0.24868E-03   -0.32078E-03  4387   0.585E-02    0.399E-02
RMM:   6    -0.329921329016E+04   -0.58765E-04   -0.75785E-04  3677   0.277E-02    0.229E-02
RMM:   7    -0.329921329362E+04   -0.34600E-05   -0.17119E-04  2871   0.229E-02    0.968E-03
RMM:   8    -0.329921329761E+04   -0.39911E-05   -0.50803E-05  2002   0.111E-02
   21 T=  4310. E= -.32804269E+04 F= -.33625025E+04 E0= -.33619453E+04  EK= 0.25012E+03 SP= -.22E+03 SK= 0.51E+02
       N       E                     dE             d eps       ncg     rms          rms(c)
RMM:   1    -0.328721672034E+04    0.11997E+02   -0.53369E+00  4393   0.262E+00    0.283E-01
RMM:   2    -0.328729491383E+04   -0.78193E-01   -0.80292E-01  3869   0.110E+00    0.181E-01
RMM:   3    -0.328732143311E+04   -0.26519E-01   -0.27972E-01  3944   0.333E-01    0.148E-01
RMM:   4    -0.328732303239E+04   -0.15993E-02   -0.30434E-02  3582   0.389E-01    0.733E-02
RMM:   5    -0.328732329211E+04   -0.25972E-03   -0.32732E-03  4372   0.586E-02    0.476E-02
RMM:   6    -0.328732334387E+04   -0.51762E-04   -0.78563E-04  3913   0.309E-02    0.305E-02
RMM:   7    -0.328732333886E+04    0.50049E-05   -0.13362E-04  2726   0.179E-02    0.113E-02
RMM:   8    -0.328732334301E+04   -0.41505E-05   -0.61068E-05  2210   0.126E-02
   22 T=  4453. E= -.32803592E+04 F= -.33506387E+04 E0= -.33500150E+04  EK= 0.25844E+03 SP= -.24E+03 SK= 0.54E+02
       N       E                     dE             d eps       ncg     rms          rms(c)
RMM:   1    -0.327529687073E+04    0.12026E+02   -0.52851E+00  4312   0.270E+00    0.298E-01
RMM:   2    -0.327538895968E+04   -0.92089E-01   -0.94116E-01  3878   0.116E+00    0.202E-01
RMM:   3    -0.327541835504E+04   -0.29395E-01   -0.30991E-01  4075   0.329E-01    0.164E-01
RMM:   4    -0.327541991089E+04   -0.15559E-02   -0.32147E-02  3564   0.404E-01    0.812E-02
RMM:   5    -0.327542018273E+04   -0.27184E-03   -0.36785E-03  4371   0.612E-02    0.512E-02
RMM:   6    -0.327542024438E+04   -0.61651E-04   -0.88948E-04  3950   0.326E-02    0.335E-02
RMM:   7    -0.327542023822E+04    0.61598E-05   -0.16603E-04  2912   0.209E-02    0.138E-02
RMM:   8    -0.327542024213E+04   -0.39067E-05   -0.76635E-05  2485   0.141E-02
   23 T=  4616. E= -.32802783E+04 F= -.33387642E+04 E0= -.33380733E+04  EK= 0.26791E+03 SP= -.27E+03 SK= 0.56E+02
       N       E                     dE             d eps       ncg     rms          rms(c)
RMM:   1    -0.326298135600E+04    0.12439E+02   -0.53714E+00  4263   0.279E+00    0.311E-01
RMM:   2    -0.326309195989E+04   -0.11060E+00   -0.11261E+00  3982   0.118E+00    0.227E-01
RMM:   3    -0.326311968098E+04   -0.27721E-01   -0.29703E-01  4163   0.328E-01    0.176E-01
RMM:   4    -0.326312112602E+04   -0.14450E-02   -0.31392E-02  3603   0.396E-01    0.881E-02
RMM:   5    -0.326312138355E+04   -0.25753E-03   -0.37996E-03  4406   0.618E-02    0.546E-02
RMM:   6    -0.326312144284E+04   -0.59296E-04   -0.88593E-04  4045   0.327E-02    0.344E-02
RMM:   7    -0.326312143461E+04    0.82312E-05   -0.17026E-04  3011   0.215E-02    0.140E-02
RMM:   8    -0.326312143855E+04   -0.39390E-05   -0.81818E-05  2494   0.140E-02
   24 T=  4792. E= -.32801784E+04 F= -.33264966E+04 E0= -.33257315E+04  EK= 0.27812E+03 SP= -.29E+03 SK= 0.57E+02
       N       E                     dE             d eps       ncg     rms          rms(c)
RMM:   1    -0.324999138214E+04    0.13130E+02   -0.55484E+00  4242   0.288E+00    0.318E-01
RMM:   2    -0.325011307640E+04   -0.12169E+00   -0.12373E+00  4013   0.120E+00    0.235E-01
RMM:   3    -0.325014147063E+04   -0.28394E-01   -0.30524E-01  4202   0.332E-01    0.179E-01
RMM:   4    -0.325014280316E+04   -0.13325E-02   -0.30482E-02  3624   0.387E-01    0.925E-02
RMM:   5    -0.325014304463E+04   -0.24147E-03   -0.38627E-03  4409   0.617E-02    0.530E-02
RMM:   6    -0.325014310979E+04   -0.65164E-04   -0.89837E-04  4063   0.319E-02    0.321E-02
RMM:   7    -0.325014310398E+04    0.58083E-05   -0.19763E-04  3057   0.249E-02    0.112E-02
RMM:   8    -0.325014310855E+04   -0.45671E-05   -0.71685E-05  2369   0.131E-02
   25 T=  4974. E= -.32800557E+04 F= -.33135522E+04 E0= -.33126980E+04  EK= 0.28869E+03 SP= -.31E+03 SK= 0.58E+02
       N       E                     dE             d eps       ncg     rms          rms(c)
RMM:   1    -0.323619047047E+04    0.13953E+02   -0.58799E+00  4248   0.295E+00    0.328E-01
RMM:   2    -0.323631835452E+04   -0.12788E+00   -0.13026E+00  4025   0.121E+00    0.240E-01
RMM:   3    -0.323634694562E+04   -0.28591E-01   -0.30916E-01  4213   0.341E-01    0.183E-01
RMM:   4    -0.323634848490E+04   -0.15393E-02   -0.32959E-02  3663   0.391E-01    0.953E-02
RMM:   5    -0.323634872069E+04   -0.23580E-03   -0.39072E-03  4425   0.626E-02    0.534E-02
RMM:   6    -0.323634878431E+04   -0.63616E-04   -0.89043E-04  4054   0.313E-02    0.324E-02
RMM:   7    -0.323634877925E+04    0.50599E-05   -0.20407E-04  3051   0.252E-02    0.109E-02
RMM:   8    -0.323634878403E+04   -0.47807E-05   -0.74399E-05  2413   0.130E-02
   26 T=  5157. E= -.32799108E+04 F= -.32997950E+04 E0= -.32988270E+04  EK= 0.29930E+03 SP= -.34E+03 SK= 0.57E+02
       N       E                     dE             d eps       ncg     rms          rms(c)
RMM:   1    -0.322158972967E+04    0.14759E+02   -0.57351E+00  4198   0.301E+00    0.345E-01
RMM:   2    -0.322172864596E+04   -0.13892E+00   -0.14114E+00  4081   0.123E+00    0.260E-01
RMM:   3    -0.322175759385E+04   -0.28948E-01   -0.31497E-01  4338   0.325E-01    0.193E-01
RMM:   4    -0.322175890998E+04   -0.13161E-02   -0.31548E-02  3688   0.383E-01    0.106E-01
RMM:   5    -0.322175910249E+04   -0.19251E-03   -0.39267E-03  4431   0.634E-02    0.552E-02
RMM:   6    -0.322175916704E+04   -0.64542E-04   -0.87220E-04  4078   0.317E-02    0.360E-02
RMM:   7    -0.322175916455E+04    0.24863E-05   -0.21355E-04  2898   0.263E-02    0.172E-02
RMM:   8    -0.322175916535E+04   -0.79919E-06   -0.77247E-05  2457   0.142E-02
   27 T=  5338. E= -.32797467E+04 F= -.32852459E+04 E0= -.32841302E+04  EK= 0.30979E+03 SP= -.36E+03 SK= 0.56E+02
       N       E                     dE             d eps       ncg     rms          rms(c)
RMM:   1    -0.320634412225E+04    0.15415E+02   -0.56440E+00  4152   0.309E+00    0.353E-01
RMM:   2    -0.320649456809E+04   -0.15045E+00   -0.15220E+00  4132   0.123E+00    0.274E-01
RMM:   3    -0.320652206977E+04   -0.27502E-01   -0.30141E-01  4456   0.322E-01    0.192E-01
RMM:   4    -0.320652311716E+04   -0.10474E-02   -0.27454E-02  3730   0.352E-01    0.116E-01
RMM:   5    -0.320652327857E+04   -0.16141E-03   -0.39061E-03  4396   0.633E-02    0.579E-02
RMM:   6    -0.320652333779E+04   -0.59217E-04   -0.81227E-04  4061   0.320E-02    0.384E-02
RMM:   7    -0.320652333794E+04   -0.14922E-06   -0.23092E-04  2952   0.267E-02    0.175E-02
RMM:   8    -0.320652333796E+04   -0.15862E-07   -0.75652E-05  2359   0.144E-02
   28 T=  5515. E= -.32795705E+04 F= -.32700544E+04 E0= -.32687541E+04  EK= 0.32006E+03 SP= -.38E+03 SK= 0.53E+02
       N       E                     dE             d eps       ncg     rms          rms(c)
RMM:   1    -0.319064920086E+04    0.15874E+02   -0.58628E+00  4143   0.320E+00    0.376E-01
RMM:   2    -0.319081014251E+04   -0.16094E+00   -0.16272E+00  4137   0.125E+00    0.295E-01
RMM:   3    -0.319083876718E+04   -0.28625E-01   -0.31548E-01  4497   0.333E-01    0.194E-01
RMM:   4    -0.319083982750E+04   -0.10603E-02   -0.27585E-02  3783   0.341E-01    0.130E-01
RMM:   5    -0.319083992878E+04   -0.10128E-03   -0.39706E-03  4319   0.672E-02    0.579E-02
RMM:   6    -0.319084000168E+04   -0.72901E-04   -0.88269E-04  4028   0.335E-02    0.364E-02
RMM:   7    -0.319084000774E+04   -0.60585E-05   -0.26690E-04  3044   0.284E-02    0.181E-02
RMM:   8    -0.319084000629E+04    0.14490E-05   -0.73908E-05  2394   0.147E-02
   29 T=  5687. E= -.32793857E+04 F= -.32544204E+04 E0= -.32529063E+04  EK= 0.33006E+03 SP= -.41E+03 SK= 0.50E+02
       N       E                     dE             d eps       ncg     rms          rms(c)
RMM:   1    -0.317469840458E+04    0.16142E+02   -0.61022E+00  4133   0.332E+00    0.396E-01
RMM:   2    -0.317487150818E+04   -0.17310E+00   -0.17457E+00  4106   0.129E+00    0.349E-01
RMM:   3    -0.317490230314E+04   -0.30795E-01   -0.34175E-01  4530   0.349E-01    0.224E-01
RMM:   4    -0.317490346209E+04   -0.11589E-02   -0.30525E-02  3783   0.349E-01    0.155E-01
RMM:   5    -0.317490349431E+04   -0.32222E-04   -0.44432E-03  4276   0.737E-02    0.746E-02
RMM:   6    -0.317490357807E+04   -0.83759E-04   -0.11933E-03  4033   0.389E-02    0.477E-02
RMM:   7    -0.317490358702E+04   -0.89499E-05   -0.33406E-04  3282   0.288E-02    0.278E-02
RMM:   8    -0.317490357941E+04    0.76055E-05   -0.10138E-04  2685   0.180E-02    0.135E-02
RMM:   9    -0.317490357851E+04    0.90833E-06   -0.35993E-05  1758   0.886E-03
   30 T=  5854. E= -.32791926E+04 F= -.32385398E+04 E0= -.32367965E+04  EK= 0.33973E+03 SP= -.43E+03 SK= 0.47E+02
       N       E                     dE             d eps       ncg     rms          rms(c)
RMM:   1    -0.315866310036E+04    0.16240E+02   -0.67636E+00  4123   0.352E+00    0.413E-01
RMM:   2    -0.315885880945E+04   -0.19571E+00   -0.19701E+00  4103   0.136E+00    0.386E-01
RMM:   3    -0.315889394214E+04   -0.35133E-01   -0.38713E-01  4560   0.374E-01    0.270E-01
RMM:   4    -0.315889475658E+04   -0.81444E-03   -0.30879E-02  3832   0.343E-01    0.173E-01
RMM:   5    -0.315889473358E+04    0.23006E-04   -0.46193E-03  4271   0.775E-02    0.956E-02
RMM:   6    -0.315889480865E+04   -0.75072E-04   -0.15203E-03  3973   0.456E-02    0.578E-02
RMM:   7    -0.315889482318E+04   -0.14527E-04   -0.44010E-04  3470   0.316E-02    0.333E-02
RMM:   8    -0.315889481424E+04    0.89353E-05   -0.16210E-04  3124   0.221E-02    0.162E-02
RMM:   9    -0.315889481318E+04    0.10575E-05   -0.53504E-05  1977   0.102E-02
   31 T=  6013. E= -.32789886E+04 F= -.32225931E+04 E0= -.32206170E+04  EK= 0.34896E+03 SP= -.45E+03 SK= 0.42E+02
       N       E                     dE             d eps       ncg     rms          rms(c)
RMM:   1    -0.314277489161E+04    0.16120E+02   -0.68357E+00  4065   0.369E+00    0.427E-01
RMM:   2    -0.314299249018E+04   -0.21760E+00   -0.21903E+00  4141   0.136E+00    0.385E-01
RMM:   3    -0.314302534768E+04   -0.32858E-01   -0.36530E-01  4675   0.395E-01    0.311E-01
RMM:   4    -0.314302592579E+04   -0.57811E-03   -0.28574E-02  3980   0.295E-01    0.194E-01
RMM:   5    -0.314302589615E+04    0.29640E-04   -0.51399E-03  4260   0.823E-02    0.129E-01
RMM:   6    -0.314302590127E+04   -0.51219E-05   -0.18158E-03  4011   0.518E-02    0.720E-02
RMM:   7    -0.314302591580E+04   -0.14532E-04   -0.54799E-04  3843   0.313E-02    0.429E-02
RMM:   8    -0.314302589803E+04    0.17771E-04   -0.20238E-04  3169   0.249E-02    0.203E-02
RMM:   9    -0.314302589511E+04    0.29256E-05   -0.85529E-05  2462   0.123E-02
   32 T=  6163. E= -.32787713E+04 F= -.32067920E+04 E0= -.32045848E+04  EK= 0.35769E+03 SP= -.47E+03 SK= 0.38E+02
       N       E                     dE             d eps       ncg     rms          rms(c)
RMM:   1    -0.312731382636E+04    0.15712E+02   -0.69170E+00  4029   0.384E+00    0.433E-01
RMM:   2    -0.312753601173E+04   -0.22219E+00   -0.22363E+00  4100   0.138E+00    0.366E-01
RMM:   3    -0.312757291657E+04   -0.36905E-01   -0.40031E-01  4710   0.400E-01    0.344E-01
RMM:   4    -0.312757299621E+04   -0.79640E-04   -0.26771E-02  3961   0.281E-01    0.210E-01
RMM:   5    -0.312757291624E+04    0.79967E-04   -0.55778E-03  4254   0.860E-02    0.142E-01
RMM:   6    -0.312757293358E+04   -0.17342E-04   -0.21433E-03  4008   0.575E-02    0.854E-02
RMM:   7    -0.312757294591E+04   -0.12324E-04   -0.67019E-04  3874   0.329E-02    0.543E-02
RMM:   8    -0.312757291029E+04    0.35618E-04   -0.26577E-04  3183   0.293E-02    0.255E-02
RMM:   9    -0.312757290370E+04    0.65892E-05   -0.14718E-04  3118   0.158E-02    0.976E-03
RMM:  10    -0.312757290500E+04   -0.13030E-05   -0.28362E-05  1798   0.869E-03
   33 T=  6304. E= -.32785452E+04 F= -.31914140E+04 E0= -.31889747E+04  EK= 0.36588E+03 SP= -.49E+03 SK= 0.33E+02
       N       E                     dE             d eps       ncg     rms          rms(c)
RMM:   1    -0.311255513444E+04    0.15018E+02   -0.73535E+00  4036   0.399E+00    0.445E-01
RMM:   2    -0.311278911836E+04   -0.23398E+00   -0.23539E+00  4082   0.141E+00    0.345E-01
RMM:   3    -0.311282812211E+04   -0.39004E-01   -0.42094E-01  4724   0.439E-01    0.340E-01
RMM:   4    -0.311282908785E+04   -0.96574E-03   -0.33942E-02  3984   0.286E-01    0.224E-01
RMM:   5    -0.311282905050E+04    0.37346E-04   -0.57738E-03  4243   0.912E-02    0.158E-01
RMM:   6    -0.311282904755E+04    0.29508E-05   -0.21902E-03  3991   0.590E-02    0.976E-02
RMM:   7    -0.311282906461E+04   -0.17056E-04   -0.81761E-04  3893   0.342E-02    0.620E-02
RMM:   8    -0.311282902616E+04    0.38443E-04   -0.27019E-04  3244   0.291E-02    0.319E-02
RMM:   9    -0.311282901609E+04    0.10075E-04   -0.20160E-04  3276   0.191E-02    0.138E-02
RMM:  10    -0.311282901682E+04   -0.73141E-06   -0.38744E-05  1920   0.954E-03
   34 T=  6436. E= -.32783196E+04 F= -.31767509E+04 E0= -.31740702E+04  EK= 0.37354E+03 SP= -.50E+03 SK= 0.28E+02
       N       E                     dE             d eps       ncg     rms          rms(c)
RMM:   1    -0.309871160798E+04    0.14117E+02   -0.74691E+00  3982   0.411E+00    0.449E-01
RMM:   2    -0.309895166407E+04   -0.24006E+00   -0.24088E+00  4008   0.145E+00    0.342E-01
RMM:   3    -0.309899470102E+04   -0.43037E-01   -0.46175E-01  4727   0.427E-01    0.301E-01
RMM:   4    -0.309899567026E+04   -0.96924E-03   -0.32400E-02  3884   0.310E-01    0.255E-01
RMM:   5    -0.309899570163E+04   -0.31373E-04   -0.55386E-03  4317   0.794E-02    0.186E-01
RMM:   6    -0.309899559625E+04    0.10539E-03   -0.22249E-03  3954   0.618E-02    0.841E-02
RMM:   7    -0.309899564940E+04   -0.53152E-04   -0.77366E-04  3832   0.335E-02    0.626E-02
RMM:   8    -0.309899562786E+04    0.21539E-04   -0.26289E-04  3269   0.275E-02    0.355E-02
RMM:   9    -0.309899561664E+04    0.11218E-04   -0.14399E-04  2948   0.175E-02    0.171E-02
RMM:  10    -0.309899561554E+04    0.11006E-05   -0.43360E-05  1951   0.889E-03
   35 T=  6557. E= -.32780979E+04 F= -.31629986E+04 E0= -.31600596E+04  EK= 0.38058E+03 SP= -.52E+03 SK= 0.23E+02
       N       E                     dE             d eps       ncg     rms          rms(c)
RMM:   1    -0.308581827390E+04    0.13177E+02   -0.78536E+00  3971   0.425E+00    0.468E-01
RMM:   2    -0.308607185741E+04   -0.25358E+00   -0.25442E+00  4008   0.150E+00    0.366E-01
RMM:   3    -0.308611762205E+04   -0.45765E-01   -0.49123E-01  4749   0.438E-01    0.325E-01
RMM:   4    -0.308611829215E+04   -0.67011E-03   -0.31782E-02  3868   0.316E-01    0.269E-01
RMM:   5    -0.308611848098E+04   -0.18882E-03   -0.57737E-03  4394   0.755E-02    0.233E-01
RMM:   6    -0.308611827176E+04    0.20921E-03   -0.24357E-03  3965   0.662E-02    0.122E-01
RMM:   7    -0.308611829318E+04   -0.21417E-04   -0.96786E-04  3751   0.365E-02    0.811E-02
RMM:   8    -0.308611826924E+04    0.23942E-04   -0.33592E-04  3398   0.290E-02    0.427E-02
RMM:   9    -0.308611825214E+04    0.17096E-04   -0.16047E-04  3077   0.209E-02    0.226E-02
RMM:  10    -0.308611824714E+04    0.50067E-05   -0.56072E-05  2174   0.106E-02
   36 T=  6664. E= -.32778793E+04 F= -.31502014E+04 E0= -.31469846E+04  EK= 0.38676E+03 SP= -.53E+03 SK= 0.18E+02
       N       E                     dE             d eps       ncg     rms          rms(c)
RMM:   1    -0.307381961536E+04    0.12299E+02   -0.75526E+00  3895   0.433E+00    0.476E-01
RMM:   2    -0.307406884359E+04   -0.24923E+00   -0.24994E+00  3973   0.150E+00    0.369E-01
RMM:   3    -0.307411380369E+04   -0.44960E-01   -0.48049E-01  4773   0.427E-01    0.353E-01
RMM:   4    -0.307411389954E+04   -0.95851E-04   -0.27390E-02  3828   0.302E-01    0.278E-01
RMM:   5    -0.307411412436E+04   -0.22482E-03   -0.58060E-03  4407   0.734E-02    0.251E-01
RMM:   6    -0.307411384413E+04    0.28022E-03   -0.25146E-03  3941   0.690E-02    0.124E-01
RMM:   7    -0.307411390059E+04   -0.56455E-04   -0.11326E-03  3818   0.388E-02    0.922E-02
RMM:   8    -0.307411385135E+04    0.49235E-04   -0.35553E-04  3366   0.310E-02    0.504E-02
RMM:   9    -0.307411382925E+04    0.22105E-04   -0.19660E-04  3275   0.225E-02    0.310E-02
RMM:  10    -0.307411381906E+04    0.10191E-04   -0.76471E-05  2396   0.129E-02    0.137E-02
RMM:  11    -0.307411381856E+04    0.49663E-06   -0.21011E-05  1701   0.754E-03
   37 T=  6750. E= -.32776538E+04 F= -.31382810E+04 E0= -.31347723E+04  EK= 0.39176E+03 SP= -.54E+03 SK= 0.14E+02
       N       E                     dE             d eps       ncg     rms          rms(c)
RMM:   1    -0.306257864417E+04    0.11535E+02   -0.76372E+00  3888   0.437E+00    0.484E-01
RMM:   2    -0.306282551129E+04   -0.24687E+00   -0.24774E+00  3949   0.151E+00    0.367E-01
RMM:   3    -0.306287222448E+04   -0.46713E-01   -0.49766E-01  4763   0.426E-01    0.353E-01
RMM:   4    -0.306287210378E+04    0.12070E-03   -0.25189E-02  3716   0.309E-01    0.303E-01
RMM:   5    -0.306287227030E+04   -0.16653E-03   -0.61482E-03  4401   0.731E-02    0.261E-01
RMM:   6    -0.306287189309E+04    0.37721E-03   -0.27107E-03  3944   0.736E-02    0.106E-01
RMM:   7    -0.306287198320E+04   -0.90106E-04   -0.11518E-03  3738   0.386E-02    0.877E-02
RMM:   8    -0.306287196413E+04    0.19071E-04   -0.40355E-04  3339   0.320E-02    0.635E-02
RMM:   9    -0.306287192667E+04    0.37459E-04   -0.20063E-04  3165   0.241E-02    0.322E-02
RMM:  10    -0.306287191735E+04    0.93200E-05   -0.78385E-05  2434   0.123E-02
   38 T=  6810. E= -.32774167E+04 F= -.31271347E+04 E0= -.31233286E+04  EK= 0.39522E+03 SP= -.56E+03 SK= 0.96E+01
       N       E                     dE             d eps       ncg     rms          rms(c)
RMM:   1    -0.305204089327E+04    0.10831E+02   -0.73116E+00  3867   0.436E+00    0.489E-01
RMM:   2    -0.305228170183E+04   -0.24081E+00   -0.24160E+00  3958   0.147E+00    0.382E-01
RMM:   3    -0.305232513165E+04   -0.43430E-01   -0.46591E-01  4806   0.437E-01    0.359E-01
RMM:   4    -0.305232485782E+04    0.27383E-03   -0.23415E-02  3749   0.265E-01    0.284E-01
RMM:   5    -0.305232550581E+04   -0.64799E-03   -0.71343E-03  4452   0.749E-02    0.334E-01
RMM:   6    -0.305232492826E+04    0.57755E-03   -0.27475E-03  3991   0.742E-02    0.149E-01
RMM:   7    -0.305232497703E+04   -0.48770E-04   -0.13103E-03  3860   0.390E-02    0.111E-01
RMM:   8    -0.305232491601E+04    0.61027E-04   -0.40795E-04  3367   0.319E-02    0.638E-02
RMM:   9    -0.305232488657E+04    0.29440E-04   -0.24324E-04  3295   0.255E-02    0.405E-02
RMM:  10    -0.305232487170E+04    0.14867E-04   -0.10729E-04  2750   0.151E-02    0.190E-02
RMM:  11    -0.305232487012E+04    0.15755E-05   -0.29141E-05  1754   0.833E-03
   39 T=  6839. E= -.32771682E+04 F= -.31167056E+04 E0= -.31126092E+04  EK= 0.39692E+03 SP= -.56E+03 SK= 0.62E+01
       N       E                     dE             d eps       ncg     rms          rms(c)
RMM:   1    -0.304218174231E+04    0.10143E+02   -0.78183E+00  3972   0.432E+00    0.480E-01
RMM:   2    -0.304241299892E+04   -0.23126E+00   -0.23221E+00  3971   0.152E+00    0.387E-01
RMM:   3    -0.304246124997E+04   -0.48251E-01   -0.51115E-01  4747   0.422E-01    0.380E-01
RMM:   4    -0.304246082816E+04    0.42180E-03   -0.28127E-02  3681   0.325E-01    0.256E-01
RMM:   5    -0.304246143498E+04   -0.60681E-03   -0.65725E-03  4370   0.787E-02    0.332E-01
RMM:   6    -0.304246106514E+04    0.36984E-03   -0.23069E-03  3819   0.646E-02    0.218E-01
RMM:   7    -0.304246094206E+04    0.12309E-03   -0.12450E-03  3765   0.426E-02    0.119E-01
RMM:   8    -0.304246087385E+04    0.68205E-04   -0.45761E-04  3377   0.354E-02    0.547E-02
RMM:   9    -0.304246085911E+04    0.14738E-04   -0.26827E-04  3472   0.244E-02    0.364E-02
RMM:  10    -0.304246084773E+04    0.11387E-04   -0.74817E-05  2369   0.136E-02    0.207E-02
RMM:  11    -0.304246084415E+04    0.35794E-05   -0.21781E-05  1741   0.754E-03
   40 T=  6835. E= -.32769125E+04 F= -.31069795E+04 E0= -.31026100E+04  EK= 0.39671E+03 SP= -.57E+03 SK= 0.36E+01
       N       E                     dE             d eps       ncg     rms          rms(c)
RMM:   1    -0.303303300069E+04    0.94278E+01   -0.79176E+00  4015   0.425E+00    0.477E-01
RMM:   2    -0.303325624876E+04   -0.22325E+00   -0.22409E+00  3979   0.153E+00    0.405E-01
RMM:   3    -0.303330751931E+04   -0.51271E-01   -0.54086E-01  4697   0.417E-01    0.382E-01
RMM:   4    -0.303330721807E+04    0.30124E-03   -0.32724E-02  3679   0.363E-01    0.244E-01
RMM:   5    -0.303330785350E+04   -0.63543E-03   -0.67690E-03  4387   0.798E-02    0.323E-01
RMM:   6    -0.303330762974E+04    0.22376E-03   -0.21653E-03  3863   0.594E-02    0.235E-01
RMM:   7    -0.303330747126E+04    0.15847E-03   -0.11597E-03  3714   0.432E-02    0.127E-01
RMM:   8    -0.303330741563E+04    0.55636E-04   -0.46208E-04  3336   0.332E-02    0.718E-02
RMM:   9    -0.303330739681E+04    0.18818E-04   -0.23051E-04  3369   0.233E-02    0.510E-02
RMM:  10    -0.303330737715E+04    0.19657E-04   -0.83937E-05  2360   0.146E-02    0.280E-02
RMM:  11    -0.303330736881E+04    0.83403E-05   -0.31068E-05  1764   0.825E-03
   41 T=  6798. E= -.32766469E+04 F= -.30979571E+04 E0= -.30933381E+04  EK= 0.39456E+03 SP= -.57E+03 SK= 0.16E+01
       N       E                     dE             d eps       ncg     rms          rms(c)
RMM:   1    -0.302464770766E+04    0.86597E+01   -0.77593E+00  4047   0.414E+00    0.474E-01
RMM:   2    -0.302486305533E+04   -0.21535E+00   -0.21620E+00  4031   0.150E+00    0.406E-01
RMM:   3    -0.302491187946E+04   -0.48824E-01   -0.51700E-01  4704   0.405E-01    0.392E-01
RMM:   4    -0.302491169367E+04    0.18579E-03   -0.32210E-02  3697   0.365E-01    0.265E-01
RMM:   5    -0.302491236871E+04   -0.67503E-03   -0.65015E-03  4486   0.697E-02    0.343E-01
RMM:   6    -0.302491208249E+04    0.28621E-03   -0.20702E-03  3903   0.597E-02    0.237E-01
RMM:   7    -0.302491184797E+04    0.23452E-03   -0.12495E-03  3743   0.471E-02    0.114E-01
RMM:   8    -0.302491184163E+04    0.63410E-05   -0.54188E-04  3521   0.329E-02    0.748E-02
RMM:   9    -0.302491180718E+04    0.34454E-04   -0.22535E-04  3235   0.238E-02    0.407E-02
RMM:  10    -0.302491179838E+04    0.88015E-05   -0.93023E-05  2471   0.147E-02
   42 T=  6729. E= -.32763728E+04 F= -.30896738E+04 E0= -.30848302E+04  EK= 0.39054E+03 SP= -.58E+03 SK= 0.48E+00
       N       E                     dE             d eps       ncg     rms          rms(c)
RMM:   1    -0.301710027952E+04    0.78115E+01   -0.74199E+00  4079   0.403E+00    0.473E-01
RMM:   2    -0.301730167491E+04   -0.20140E+00   -0.20271E+00  4041   0.146E+00    0.397E-01
RMM:   3    -0.301734799081E+04   -0.46316E-01   -0.48814E-01  4678   0.396E-01    0.449E-01
RMM:   4    -0.301734816991E+04   -0.17910E-03   -0.33759E-02  3727   0.375E-01    0.332E-01
RMM:   5    -0.301734823622E+04   -0.66307E-04   -0.58382E-03  4509   0.668E-02    0.257E-01
RMM:   6    -0.301734818455E+04    0.51669E-04   -0.22329E-03  3974   0.614E-02    0.212E-01
RMM:   7    -0.301734797055E+04    0.21400E-03   -0.12095E-03  3744   0.472E-02    0.104E-01
RMM:   8    -0.301734797303E+04   -0.24803E-05   -0.55853E-04  3617   0.319E-02    0.658E-02
RMM:   9    -0.301734795461E+04    0.18419E-04   -0.19545E-04  3088   0.234E-02    0.428E-02
RMM:  10    -0.301734793737E+04    0.17240E-04   -0.76356E-05  2358   0.138E-02    0.241E-02
RMM:  11    -0.301734793131E+04    0.60634E-05   -0.31469E-05  1761   0.839E-03
   43 T=  6631. E= -.32760920E+04 F= -.30822069E+04 E0= -.30771584E+04  EK= 0.38485E+03 SP= -.58E+03 SK= 0.18E-01
       N       E                     dE             d eps       ncg     rms          rms(c)
RMM:   1    -0.301048896614E+04    0.68590E+01   -0.73020E+00  4093   0.391E+00    0.471E-01
RMM:   2    -0.301068139459E+04   -0.19243E+00   -0.19376E+00  4040   0.149E+00    0.433E-01
RMM:   3    -0.301072838110E+04   -0.46987E-01   -0.50047E-01  4632   0.394E-01    0.408E-01
RMM:   4    -0.301072866141E+04   -0.28031E-03   -0.37245E-02  3706   0.414E-01    0.270E-01
RMM:   5    -0.301072923939E+04   -0.57798E-03   -0.63306E-03  4506   0.702E-02    0.336E-01
RMM:   6    -0.301072898363E+04    0.25576E-03   -0.21577E-03  4050   0.547E-02    0.249E-01
RMM:   7    -0.301072874288E+04    0.24076E-03   -0.12961E-03  3733   0.498E-02    0.128E-01
RMM:   8    -0.301072871380E+04    0.29074E-04   -0.64049E-04  3678   0.334E-02    0.817E-02
RMM:   9    -0.301072868577E+04    0.28030E-04   -0.23668E-04  3182   0.242E-02    0.508E-02
RMM:  10    -0.301072866119E+04    0.24586E-04   -0.87976E-05  2477   0.153E-02    0.260E-02
RMM:  11    -0.301072865268E+04    0.85082E-05   -0.35286E-05  1814   0.870E-03
   44 T=  6509. E= -.32758099E+04 F= -.30756738E+04 E0= -.30704335E+04  EK= 0.37779E+03 SP= -.58E+03 SK= 0.15E+00
       N       E                     dE             d eps       ncg     rms          rms(c)
RMM:   1    -0.300492575647E+04    0.58029E+01   -0.70193E+00  4098   0.381E+00    0.460E-01
RMM:   2    -0.300511499116E+04   -0.18923E+00   -0.19066E+00  4080   0.144E+00    0.398E-01
RMM:   3    -0.300515771206E+04   -0.42721E-01   -0.45866E-01  4660   0.382E-01    0.348E-01
RMM:   4    -0.300515846229E+04   -0.75023E-03   -0.36012E-02  3763   0.397E-01    0.251E-01
RMM:   5    -0.300515907947E+04   -0.61718E-03   -0.57072E-03  4463   0.720E-02    0.350E-01
RMM:   6    -0.300515876629E+04    0.31318E-03   -0.20737E-03  4072   0.525E-02    0.248E-01
RMM:   7    -0.300515854149E+04    0.22480E-03   -0.11322E-03  3722   0.476E-02    0.125E-01
RMM:   8    -0.300515851260E+04    0.28887E-04   -0.53307E-04  3643   0.317E-02    0.800E-02
RMM:   9    -0.300515848103E+04    0.31576E-04   -0.20084E-04  3122   0.232E-02    0.505E-02
RMM:  10    -0.300515846137E+04    0.19660E-04   -0.80381E-05  2350   0.143E-02    0.311E-02
RMM:  11    -0.300515845136E+04    0.10012E-04   -0.33826E-05  1806   0.878E-03    0.161E-02
RMM:  12    -0.300515844936E+04    0.19982E-05   -0.17589E-05  1692   0.736E-03
   45 T=  6370. E= -.32755324E+04 F= -.30701817E+04 E0= -.30647597E+04  EK= 0.36971E+03 SP= -.58E+03 SK= 0.77E+00
       N       E                     dE             d eps       ncg     rms          rms(c)
RMM:   1    -0.300044445494E+04    0.47140E+01   -0.66265E+00  4100   0.369E+00    0.441E-01
RMM:   2    -0.300062399889E+04   -0.17954E+00   -0.18085E+00  4119   0.139E+00    0.403E-01
RMM:   3    -0.300066140827E+04   -0.37409E-01   -0.40614E-01  4635   0.370E-01    0.346E-01
RMM:   4    -0.300066243253E+04   -0.10243E-02   -0.36643E-02  3776   0.397E-01    0.235E-01
RMM:   5    -0.300066271538E+04   -0.28285E-03   -0.58077E-03  4370   0.760E-02    0.243E-01
RMM:   6    -0.300066289189E+04   -0.17651E-03   -0.22634E-03  4054   0.550E-02    0.301E-01
RMM:   7    -0.300066255388E+04    0.33801E-03   -0.97575E-04  3761   0.419E-02    0.150E-01
RMM:   8    -0.300066248039E+04    0.73489E-04   -0.45785E-04  3572   0.315E-02    0.746E-02
RMM:   9    -0.300066246043E+04    0.19959E-04   -0.18832E-04  3098   0.218E-02    0.522E-02
RMM:  10    -0.300066243668E+04    0.23756E-04   -0.87533E-05  2537   0.147E-02    0.295E-02
RMM:  11    -0.300066242770E+04    0.89709E-05   -0.33390E-05  1807   0.874E-03
   46 T=  6218. E= -.32752672E+04 F= -.30657569E+04 E0= -.30601628E+04  EK= 0.36090E+03 SP= -.57E+03 SK= 0.17E+01
       N       E                     dE             d eps       ncg     rms          rms(c)
RMM:   1    -0.299692218285E+04    0.37403E+01   -0.63207E+00  4123   0.357E+00    0.435E-01
RMM:   2    -0.299709274615E+04   -0.17056E+00   -0.17196E+00  4128   0.136E+00    0.400E-01
RMM:   3    -0.299713008723E+04   -0.37341E-01   -0.40281E-01  4646   0.357E-01    0.363E-01
RMM:   4    -0.299713070243E+04   -0.61519E-03   -0.34274E-02  3803   0.384E-01    0.227E-01
RMM:   5    -0.299713095312E+04   -0.25069E-03   -0.53670E-03  4375   0.742E-02    0.223E-01
RMM:   6    -0.299713117951E+04   -0.22639E-03   -0.21671E-03  4005   0.554E-02    0.296E-01
RMM:   7    -0.299713087644E+04    0.30307E-03   -0.89480E-04  3781   0.385E-02    0.157E-01
RMM:   8    -0.299713078253E+04    0.93911E-04   -0.41811E-04  3582   0.302E-02    0.664E-02
RMM:   9    -0.299713075585E+04    0.26686E-04   -0.16673E-04  3053   0.213E-02    0.357E-02
RMM:  10    -0.299713074598E+04    0.98683E-05   -0.81132E-05  2572   0.138E-02
   47 T=  6057. E= -.32750120E+04 F= -.30622904E+04 E0= -.30565344E+04  EK= 0.35153E+03 SP= -.57E+03 SK= 0.29E+01
       N       E                     dE             d eps       ncg     rms          rms(c)
RMM:   1    -0.299418075506E+04    0.29500E+01   -0.55803E+00  4108   0.347E+00    0.424E-01
RMM:   2    -0.299433067320E+04   -0.14992E+00   -0.15120E+00  4089   0.126E+00    0.363E-01
RMM:   3    -0.299436424124E+04   -0.33568E-01   -0.35843E-01  4695   0.341E-01    0.382E-01
RMM:   4    -0.299436468839E+04   -0.44715E-03   -0.27812E-02  3831   0.333E-01    0.303E-01
RMM:   5    -0.299436482983E+04   -0.14144E-03   -0.42820E-03  4536   0.580E-02    0.272E-01
RMM:   6    -0.299436455502E+04    0.27481E-03   -0.18167E-03  4038   0.547E-02    0.163E-01
RMM:   7    -0.299436447013E+04    0.84894E-04   -0.10616E-03  3828   0.448E-02    0.945E-02
RMM:   8    -0.299436446259E+04    0.75386E-05   -0.45409E-04  3655   0.274E-02    0.668E-02
RMM:   9    -0.299436443560E+04    0.26991E-04   -0.14412E-04  2960   0.215E-02    0.402E-02
RMM:  10    -0.299436442453E+04    0.11073E-04   -0.63779E-05  2313   0.127E-02    0.299E-02
RMM:  11    -0.299436441411E+04    0.10413E-04   -0.23921E-05  1717   0.856E-03    0.128E-02
RMM:  12    -0.299436441295E+04    0.11635E-05   -0.13311E-05  1645   0.691E-03
   48 T=  5887. E= -.32747596E+04 F= -.30595848E+04 E0= -.30536824E+04  EK= 0.34169E+03 SP= -.56E+03 SK= 0.42E+01
       N       E                     dE             d eps       ncg     rms          rms(c)
RMM:   1    -0.299199766272E+04    0.23668E+01   -0.53127E+00  4112   0.336E+00    0.423E-01
RMM:   2    -0.299213531597E+04   -0.13765E+00   -0.13894E+00  4059   0.124E+00    0.374E-01
RMM:   3    -0.299216722625E+04   -0.31910E-01   -0.34212E-01  4667   0.336E-01    0.370E-01
RMM:   4    -0.299216771954E+04   -0.49329E-03   -0.29512E-02  3822   0.350E-01    0.273E-01
RMM:   5    -0.299216804281E+04   -0.32327E-03   -0.40681E-03  4537   0.572E-02    0.310E-01
RMM:   6    -0.299216768717E+04    0.35564E-03   -0.16401E-03  4043   0.496E-02    0.186E-01
RMM:   7    -0.299216757489E+04    0.11228E-03   -0.10235E-03  3775   0.443E-02    0.116E-01
RMM:   8    -0.299216752224E+04    0.52650E-04   -0.49804E-04  3678   0.290E-02    0.672E-02
RMM:   9    -0.299216751213E+04    0.10108E-04   -0.17235E-04  2982   0.207E-02    0.509E-02
RMM:  10    -0.299216749172E+04    0.20408E-04   -0.62447E-05  2164   0.131E-02    0.281E-02
RMM:  11    -0.299216748234E+04    0.93780E-05   -0.24534E-05  1731   0.865E-03
   49 T=  5711. E= -.32745039E+04 F= -.30574453E+04 E0= -.30514125E+04  EK= 0.33148E+03 SP= -.55E+03 SK= 0.54E+01
       N       E                     dE             d eps       ncg     rms          rms(c)
RMM:   1    -0.299028503562E+04    0.18825E+01   -0.50027E+00  4106   0.327E+00    0.426E-01
RMM:   2    -0.299041696624E+04   -0.13193E+00   -0.13364E+00  4063   0.121E+00    0.371E-01
RMM:   3    -0.299044751118E+04   -0.30545E-01   -0.32320E-01  4673   0.328E-01    0.483E-01
RMM:   4    -0.299044763206E+04   -0.12088E-03   -0.26927E-02  3850   0.325E-01    0.318E-01
RMM:   5    -0.299044749760E+04    0.13446E-03   -0.37281E-03  4452   0.584E-02    0.225E-01
RMM:   6    -0.299044733692E+04    0.16068E-03   -0.18074E-03  4067   0.531E-02    0.164E-01
RMM:   7    -0.299044723513E+04    0.10180E-03   -0.10114E-03  3807   0.444E-02    0.107E-01
RMM:   8    -0.299044720382E+04    0.31303E-04   -0.49028E-04  3696   0.293E-02    0.660E-02
RMM:   9    -0.299044717849E+04    0.25331E-04   -0.14429E-04  2973   0.206E-02    0.367E-02
RMM:  10    -0.299044716828E+04    0.10209E-04   -0.56930E-05  2184   0.130E-02    0.286E-02
RMM:  11    -0.299044716139E+04    0.68908E-05   -0.22328E-05  1700   0.819E-03
   50 T=  5532. E= -.32742433E+04 F= -.30557793E+04 E0= -.30496338E+04  EK= 0.32109E+03 SP= -.55E+03 SK= 0.66E+01
       N       E                     dE             d eps       ncg     rms          rms(c)
RMM:   1    -0.298910585256E+04    0.13413E+01   -0.48194E+00  4089   0.321E+00    0.419E-01
RMM:   2    -0.298923669951E+04   -0.13085E+00   -0.13263E+00  4097   0.119E+00    0.357E-01
RMM:   3    -0.298926504903E+04   -0.28350E-01   -0.30272E-01  4679   0.322E-01    0.465E-01
RMM:   4    -0.298926514829E+04   -0.99254E-04   -0.24415E-02  3844   0.305E-01    0.300E-01
RMM:   5    -0.298926504155E+04    0.10674E-03   -0.38318E-03  4393   0.581E-02    0.219E-01
RMM:   6    -0.298926489166E+04    0.14989E-03   -0.17684E-03  4037   0.533E-02    0.176E-01
RMM:   7    -0.298926472966E+04    0.16200E-03   -0.11736E-03  3804   0.469E-02    0.882E-02
RMM:   8    -0.298926471867E+04    0.10987E-04   -0.51978E-04  3666   0.301E-02    0.570E-02
RMM:   9    -0.298926471514E+04    0.35311E-05   -0.15838E-04  3015   0.214E-02    0.530E-02
RMM:  10    -0.298926468629E+04    0.28853E-04   -0.55921E-05  2116   0.133E-02    0.242E-02
RMM:  11    -0.298926468100E+04    0.52931E-05   -0.24698E-05  1732   0.831E-03
   51 T=  5355. E= -.32739782E+04 F= -.30546471E+04 E0= -.30484026E+04  EK= 0.31081E+03 SP= -.54E+03 SK= 0.75E+01
       N       E                     dE             d eps       ncg     rms          rms(c)
RMM:   1    -0.298865547829E+04    0.60921E+00   -0.46767E+00  4087   0.315E+00    0.422E-01
RMM:   2    -0.298877959755E+04   -0.12412E+00   -0.12614E+00  4076   0.119E+00    0.372E-01
RMM:   3    -0.298880859065E+04   -0.28993E-01   -0.30916E-01  4615   0.318E-01    0.482E-01
RMM:   4    -0.298880889541E+04   -0.30476E-03   -0.27350E-02  3770   0.340E-01    0.305E-01
RMM:   5    -0.298880870253E+04    0.19288E-03   -0.36466E-03  4369   0.590E-02    0.205E-01
RMM:   6    -0.298880863088E+04    0.71647E-04   -0.17489E-03  4060   0.508E-02    0.180E-01
RMM:   7    -0.298880844587E+04    0.18501E-03   -0.10602E-03  3767   0.458E-02    0.936E-02
RMM:   8    -0.298880845734E+04   -0.11471E-04   -0.53274E-04  3682   0.297E-02    0.783E-02
RMM:   9    -0.298880842991E+04    0.27432E-04   -0.16604E-04  2971   0.214E-02    0.529E-02
RMM:  10    -0.298880840164E+04    0.28267E-04   -0.58077E-05  2141   0.136E-02    0.247E-02
RMM:  11    -0.298880839666E+04    0.49871E-05   -0.26092E-05  1726   0.830E-03
   52 T=  5187. E= -.32737202E+04 F= -.30542359E+04 E0= -.30479032E+04  EK= 0.30106E+03 SP= -.53E+03 SK= 0.81E+01
       N       E                     dE             d eps       ncg     rms          rms(c)
RMM:   1    -0.298910730721E+04   -0.29891E+00   -0.44929E+00  4103   0.307E+00    0.403E-01
RMM:   2    -0.298922780056E+04   -0.12049E+00   -0.12220E+00  4092   0.117E+00    0.372E-01
RMM:   3    -0.298925573508E+04   -0.27935E-01   -0.29426E-01  4632   0.312E-01    0.537E-01
RMM:   4    -0.298925563507E+04    0.10001E-03   -0.26356E-02  3736   0.333E-01    0.283E-01
RMM:   5    -0.298925551852E+04    0.11655E-03   -0.38023E-03  4387   0.582E-02    0.197E-01
RMM:   6    -0.298925547097E+04    0.47547E-04   -0.16662E-03  4034   0.474E-02    0.180E-01
RMM:   7    -0.298925529099E+04    0.17999E-03   -0.10150E-03  3751   0.451E-02    0.970E-02
RMM:   8    -0.298925529722E+04   -0.62374E-05   -0.50634E-04  3682   0.300E-02    0.786E-02
RMM:   9    -0.298925526930E+04    0.27919E-04   -0.16287E-04  3066   0.208E-02    0.492E-02
RMM:  10    -0.298925524923E+04    0.20078E-04   -0.53350E-05  2060   0.130E-02    0.306E-02
RMM:  11    -0.298925524081E+04    0.84165E-05   -0.25907E-05  1722   0.845E-03
   53 T=  5034. E= -.32734817E+04 F= -.30547215E+04 E0= -.30483105E+04  EK= 0.29218E+03 SP= -.52E+03 SK= 0.85E+01
       N       E                     dE             d eps       ncg     rms          rms(c)
RMM:   1    -0.299046245290E+04   -0.12072E+01   -0.42346E+00  4112   0.296E+00    0.369E-01
RMM:   2    -0.299057535360E+04   -0.11290E+00   -0.11423E+00  4090   0.112E+00    0.332E-01
RMM:   3    -0.299060115730E+04   -0.25804E-01   -0.27589E-01  4555   0.298E-01    0.394E-01
RMM:   4    -0.299060190908E+04   -0.75178E-03   -0.25928E-02  3680   0.343E-01    0.280E-01
RMM:   5    -0.299060182382E+04    0.85264E-04   -0.34459E-03  4382   0.551E-02    0.199E-01
RMM:   6    -0.299060172026E+04    0.10355E-03   -0.13981E-03  4027   0.439E-02    0.158E-01
RMM:   7    -0.299060158179E+04    0.13847E-03   -0.88749E-04  3749   0.420E-02    0.876E-02
RMM:   8    -0.299060160752E+04   -0.25727E-04   -0.46514E-04  3724   0.280E-02    0.798E-02
RMM:   9    -0.299060157355E+04    0.33968E-04   -0.14761E-04  3037   0.199E-02    0.436E-02
RMM:  10    -0.299060155866E+04    0.14892E-04   -0.45517E-05  1990   0.124E-02    0.290E-02
RMM:  11    -0.299060155073E+04    0.79251E-05   -0.20202E-05  1701   0.831E-03
   54 T=  4898. E= -.32732677E+04 F= -.30560991E+04 E0= -.30496197E+04  EK= 0.28429E+03 SP= -.51E+03 SK= 0.87E+01
       N       E                     dE             d eps       ncg     rms          rms(c)
RMM:   1    -0.299247695414E+04   -0.18754E+01   -0.40714E+00  4118   0.288E+00    0.355E-01
RMM:   2    -0.299258455490E+04   -0.10760E+00   -0.10886E+00  4094   0.109E+00    0.333E-01
RMM:   3    -0.299260965850E+04   -0.25104E-01   -0.26255E-01  4548   0.293E-01    0.488E-01
RMM:   4    -0.299260989986E+04   -0.24135E-03   -0.26357E-02  3671   0.338E-01    0.257E-01
RMM:   5    -0.299260986230E+04    0.37554E-04   -0.34314E-03  4382   0.550E-02    0.188E-01
RMM:   6    -0.299260973941E+04    0.12289E-03   -0.13669E-03  4027   0.440E-02    0.149E-01
RMM:   7    -0.299260962760E+04    0.11181E-03   -0.90001E-04  3754   0.419E-02    0.879E-02
RMM:   8    -0.299260964263E+04   -0.15035E-04   -0.47090E-04  3702   0.277E-02    0.690E-02
RMM:   9    -0.299260961635E+04    0.26281E-04   -0.13804E-04  2934   0.196E-02    0.370E-02
RMM:  10    -0.299260960477E+04    0.11583E-04   -0.41466E-05  1917   0.117E-02    0.264E-02
RMM:  11    -0.299260959753E+04    0.72338E-05   -0.18941E-05  1680   0.822E-03
   55 T=  4778. E= -.32730672E+04 F= -.30581306E+04 E0= -.30515921E+04  EK= 0.27728E+03 SP= -.50E+03 SK= 0.86E+01
       N       E                     dE             d eps       ncg     rms          rms(c)
RMM:   1    -0.299481954885E+04   -0.22099E+01   -0.38410E+00  4108   0.283E+00    0.359E-01
RMM:   2    -0.299492275342E+04   -0.10320E+00   -0.10475E+00  4115   0.106E+00    0.326E-01
RMM:   3    -0.299494540763E+04   -0.22654E-01   -0.24022E-01  4555   0.284E-01    0.442E-01
RMM:   4    -0.299494594849E+04   -0.54086E-03   -0.25658E-02  3686   0.335E-01    0.263E-01
RMM:   5    -0.299494591490E+04    0.33589E-04   -0.36306E-03  4394   0.536E-02    0.195E-01
RMM:   6    -0.299494572172E+04    0.19318E-03   -0.13485E-03  4034   0.443E-02    0.147E-01
RMM:   7    -0.299494564001E+04    0.81712E-04   -0.99680E-04  3795   0.438E-02    0.107E-01
RMM:   8    -0.299494561037E+04    0.29644E-04   -0.52775E-04  3785   0.289E-02    0.649E-02
RMM:   9    -0.299494558617E+04    0.24198E-04   -0.14322E-04  2970   0.203E-02    0.354E-02
RMM:  10    -0.299494557588E+04    0.10289E-04   -0.44015E-05  1984   0.125E-02    0.304E-02
RMM:  11    -0.299494556672E+04    0.91608E-05   -0.19680E-05  1676   0.825E-03
   56 T=  4668. E= -.32728652E+04 F= -.30604828E+04 E0= -.30538962E+04  EK= 0.27091E+03 SP= -.49E+03 SK= 0.82E+01
       N       E                     dE             d eps       ncg     rms          rms(c)
RMM:   1    -0.299725661684E+04   -0.23110E+01   -0.37522E+00  4106   0.279E+00    0.363E-01
RMM:   2    -0.299735633750E+04   -0.99721E-01   -0.10143E+00  4099   0.105E+00    0.348E-01
RMM:   3    -0.299737901263E+04   -0.22675E-01   -0.24141E-01  4559   0.284E-01    0.408E-01
RMM:   4    -0.299737919220E+04   -0.17957E-03   -0.24119E-02  3710   0.320E-01    0.244E-01
RMM:   5    -0.299737934184E+04   -0.14964E-03   -0.33862E-03  4464   0.501E-02    0.245E-01
RMM:   6    -0.299737895833E+04    0.38350E-03   -0.13094E-03  4018   0.451E-02    0.140E-01
RMM:   7    -0.299737895451E+04    0.38226E-05   -0.11429E-03  3869   0.451E-02    0.133E-01
RMM:   8    -0.299737886814E+04    0.86374E-04   -0.60181E-04  3816   0.305E-02    0.632E-02
RMM:   9    -0.299737886118E+04    0.69568E-05   -0.16681E-04  3057   0.214E-02    0.521E-02
RMM:  10    -0.299737883278E+04    0.28402E-04   -0.49905E-05  2032   0.132E-02    0.263E-02
RMM:  11    -0.299737882289E+04    0.98900E-05   -0.25615E-05  1706   0.873E-03
   57 T=  4567. E= -.32726544E+04 F= -.30629259E+04 E0= -.30563074E+04  EK= 0.26505E+03 SP= -.48E+03 SK= 0.78E+01
       N       E                     dE             d eps       ncg     rms          rms(c)
RMM:   1    -0.299975942217E+04   -0.23806E+01   -0.36542E+00  4116   0.275E+00    0.351E-01
RMM:   2    -0.299985619107E+04   -0.96769E-01   -0.98611E-01  4123   0.102E+00    0.298E-01
RMM:   3    -0.299987687976E+04   -0.20689E-01   -0.22556E-01  4545   0.270E-01    0.269E-01
RMM:   4    -0.299987771699E+04   -0.83723E-03   -0.22394E-02  3688   0.316E-01    0.204E-01
RMM:   5    -0.299987785167E+04   -0.13468E-03   -0.33897E-03  4370   0.539E-02    0.240E-01
RMM:   6    -0.299987769955E+04    0.15212E-03   -0.11618E-03  3987   0.379E-02    0.197E-01
RMM:   7    -0.299987746863E+04    0.23092E-03   -0.10284E-03  3715   0.455E-02    0.804E-02
RMM:   8    -0.299987748574E+04   -0.17108E-04   -0.44727E-04  3611   0.294E-02    0.660E-02
RMM:   9    -0.299987745918E+04    0.26556E-04   -0.13529E-04  2994   0.187E-02    0.389E-02
RMM:  10    -0.299987744049E+04    0.18687E-04   -0.35184E-05  1836   0.121E-02    0.268E-02
RMM:  11    -0.299987743054E+04    0.99589E-05   -0.21678E-05  1675   0.811E-03
   58 T=  4475. E= -.32724384E+04 F= -.30654287E+04 E0= -.30587969E+04  EK= 0.25972E+03 SP= -.47E+03 SK= 0.71E+01
       N       E                     dE             d eps       ncg     rms          rms(c)
RMM:   1    -0.300243638964E+04   -0.25589E+01   -0.36189E+00  4112   0.270E+00    0.343E-01
RMM:   2    -0.300253483988E+04   -0.98450E-01   -0.99677E-01  4142   0.102E+00    0.361E-01
RMM:   3    -0.300255534444E+04   -0.20505E-01   -0.22439E-01  4548   0.271E-01    0.328E-01
RMM:   4    -0.300255577812E+04   -0.43368E-03   -0.23621E-02  3707   0.321E-01    0.194E-01
RMM:   5    -0.300255591957E+04   -0.14145E-03   -0.32523E-03  4405   0.531E-02    0.221E-01
RMM:   6    -0.300255587046E+04    0.49112E-04   -0.11534E-03  3981   0.382E-02    0.226E-01
RMM:   7    -0.300255560178E+04    0.26868E-03   -0.97243E-04  3697   0.453E-02    0.113E-01
RMM:   8    -0.300255556931E+04    0.32472E-04   -0.56271E-04  3737   0.311E-02    0.705E-02
RMM:   9    -0.300255555579E+04    0.13519E-04   -0.16709E-04  3127   0.209E-02    0.494E-02
RMM:  10    -0.300255553136E+04    0.24431E-04   -0.46900E-05  2053   0.138E-02    0.302E-02
RMM:  11    -0.300255551807E+04    0.13292E-04   -0.24958E-05  1713   0.903E-03    0.178E-02
RMM:  12    -0.300255551365E+04    0.44203E-05   -0.17372E-05  1645   0.772E-03
   59 T=  4395. E= -.32722249E+04 F= -.30681057E+04 E0= -.30614853E+04  EK= 0.25508E+03 SP= -.47E+03 SK= 0.64E+01
       N       E                     dE             d eps       ncg     rms          rms(c)
RMM:   1    -0.300544793482E+04   -0.28924E+01   -0.36953E+00  4164   0.263E+00    0.330E-01
RMM:   2    -0.300554031892E+04   -0.92384E-01   -0.93613E-01  4111   0.102E+00    0.349E-01
RMM:   3    -0.300556236257E+04   -0.22044E-01   -0.23724E-01  4471   0.273E-01    0.369E-01
RMM:   4    -0.300556340282E+04   -0.10402E-02   -0.28193E-02  3664   0.360E-01    0.260E-01
RMM:   5    -0.300556331719E+04    0.85627E-04   -0.32323E-03  4376   0.525E-02    0.183E-01
RMM:   6    -0.300556317717E+04    0.14003E-03   -0.13201E-03  4060   0.420E-02    0.156E-01
RMM:   7    -0.300556301249E+04    0.16468E-03   -0.84762E-04  3748   0.421E-02    0.891E-02
RMM:   8    -0.300556300966E+04    0.28290E-05   -0.59428E-04  3782   0.286E-02    0.609E-02
RMM:   9    -0.300556299712E+04    0.12540E-04   -0.14855E-04  2901   0.222E-02    0.462E-02
RMM:  10    -0.300556297382E+04    0.23299E-04   -0.43262E-05  1965   0.123E-02    0.244E-02
RMM:  11    -0.300556296388E+04    0.99362E-05   -0.21912E-05  1693   0.842E-03
   60 T=  4330. E= -.32720190E+04 F= -.30711070E+04 E0= -.30645241E+04  EK= 0.25131E+03 SP= -.46E+03 SK= 0.56E+01
       N       E                     dE             d eps       ncg     rms          rms(c)
RMM:   1    -0.300891843411E+04   -0.33555E+01   -0.34440E+00  4168   0.252E+00    0.337E-01
RMM:   2    -0.300899977693E+04   -0.81343E-01   -0.82501E-01  4072   0.999E-01    0.377E-01
RMM:   3    -0.300902139314E+04   -0.21616E-01   -0.23374E-01  4468   0.272E-01    0.357E-01
RMM:   4    -0.300902228528E+04   -0.89213E-03   -0.26599E-02  3671   0.353E-01    0.269E-01
RMM:   5    -0.300902219868E+04    0.86597E-04   -0.33254E-03  4462   0.517E-02    0.180E-01
RMM:   6    -0.300902202709E+04    0.17159E-03   -0.12038E-03  4063   0.409E-02    0.140E-01
RMM:   7    -0.300902189654E+04    0.13055E-03   -0.76395E-04  3729   0.402E-02    0.828E-02
RMM:   8    -0.300902190338E+04   -0.68430E-05   -0.51254E-04  3747   0.269E-02    0.601E-02
RMM:   9    -0.300902188243E+04    0.20958E-04   -0.11726E-04  2765   0.203E-02    0.382E-02
RMM:  10    -0.300902186739E+04    0.15034E-04   -0.34552E-05  1845   0.106E-02    0.232E-02
RMM:  11    -0.300902185932E+04    0.80675E-05   -0.17745E-05  1677   0.793E-03
   61 T=  4282. E= -.32718210E+04 F= -.30745548E+04 E0= -.30680340E+04  EK= 0.24854E+03 SP= -.45E+03 SK= 0.48E+01
       N       E                     dE             d eps       ncg     rms          rms(c)
RMM:   1    -0.301293586793E+04   -0.39140E+01   -0.31371E+00  4143   0.243E+00    0.340E-01
RMM:   2    -0.301301432204E+04   -0.78454E-01   -0.79182E-01  4091   0.971E-01    0.425E-01
RMM:   3    -0.301303297738E+04   -0.18655E-01   -0.20727E-01  4548   0.265E-01    0.359E-01
RMM:   4    -0.301303341210E+04   -0.43473E-03   -0.22040E-02  3730   0.315E-01    0.273E-01
RMM:   5    -0.301303328810E+04    0.12400E-03   -0.31434E-03  4495   0.496E-02    0.187E-01
RMM:   6    -0.301303311510E+04    0.17300E-03   -0.12360E-03  4043   0.423E-02    0.156E-01
RMM:   7    -0.301303293665E+04    0.17845E-03   -0.81835E-04  3757   0.412E-02    0.909E-02
RMM:   8    -0.301303293075E+04    0.59026E-05   -0.54209E-04  3696   0.273E-02    0.635E-02
RMM:   9    -0.301303290403E+04    0.26716E-04   -0.13500E-04  2794   0.224E-02    0.364E-02
RMM:  10    -0.301303288776E+04    0.16273E-04   -0.38088E-05  1879   0.112E-02    0.216E-02
RMM:  11    -0.301303287970E+04    0.80517E-05   -0.20270E-05  1684   0.790E-03
   62 T=  4254. E= -.32716295E+04 F= -.30785504E+04 E0= -.30721129E+04  EK= 0.24689E+03 SP= -.44E+03 SK= 0.40E+01
       N       E                     dE             d eps       ncg     rms          rms(c)
RMM:   1    -0.301757377159E+04   -0.45409E+01   -0.31339E+00  4152   0.242E+00    0.339E-01
RMM:   2    -0.301765244378E+04   -0.78672E-01   -0.79543E-01  4082   0.960E-01    0.414E-01
RMM:   3    -0.301767101039E+04   -0.18567E-01   -0.20387E-01  4554   0.267E-01    0.396E-01
RMM:   4    -0.301767123299E+04   -0.22260E-03   -0.20827E-02  3764   0.300E-01    0.277E-01
RMM:   5    -0.301767098176E+04    0.25122E-03   -0.26820E-03  4422   0.491E-02    0.173E-01
RMM:   6    -0.301767080039E+04    0.18137E-03   -0.14812E-03  4066   0.467E-02    0.144E-01
RMM:   7    -0.301767067972E+04    0.12067E-03   -0.80404E-04  3733   0.412E-02    0.920E-02
RMM:   8    -0.301767066908E+04    0.10644E-04   -0.48618E-04  3642   0.258E-02    0.603E-02
RMM:   9    -0.301767064287E+04    0.26201E-04   -0.12340E-04  2724   0.221E-02    0.351E-02
RMM:  10    -0.301767062559E+04    0.17287E-04   -0.36447E-05  1858   0.113E-02    0.214E-02
RMM:  11    -0.301767061827E+04    0.73138E-05   -0.23448E-05  1688   0.800E-03
   63 T=  4246. E= -.32714492E+04 F= -.30831696E+04 E0= -.30768299E+04  EK= 0.24640E+03 SP= -.44E+03 SK= 0.32E+01
       N       E                     dE             d eps       ncg     rms          rms(c)
RMM:   1    -0.302281646201E+04   -0.51458E+01   -0.31114E+00  4116   0.252E+00    0.335E-01
RMM:   2    -0.302289846259E+04   -0.82001E-01   -0.82604E-01  4074   0.945E-01    0.415E-01
RMM:   3    -0.302291669242E+04   -0.18230E-01   -0.20058E-01  4626   0.261E-01    0.392E-01
RMM:   4    -0.302291658178E+04    0.11063E-03   -0.18062E-02  3764   0.269E-01    0.262E-01
RMM:   5    -0.302291640743E+04    0.17435E-03   -0.26861E-03  4483   0.470E-02    0.180E-01
RMM:   6    -0.302291624530E+04    0.16213E-03   -0.15103E-03  4038   0.507E-02    0.157E-01
RMM:   7    -0.302291606153E+04    0.18376E-03   -0.95207E-04  3843   0.426E-02    0.848E-02
RMM:   8    -0.302291606065E+04    0.88580E-06   -0.49943E-04  3625   0.271E-02    0.583E-02
RMM:   9    -0.302291603255E+04    0.28094E-04   -0.13401E-04  2769   0.226E-02    0.351E-02
RMM:  10    -0.302291601418E+04    0.18373E-04   -0.51648E-05  2149   0.130E-02    0.226E-02
RMM:  11    -0.302291600621E+04    0.79733E-05   -0.29616E-05  1750   0.835E-03
   64 T=  4257. E= -.32712852E+04 F= -.30883952E+04 E0= -.30821617E+04  EK= 0.24705E+03 SP= -.43E+03 SK= 0.25E+01
       N       E                     dE             d eps       ncg     rms          rms(c)
RMM:   1    -0.302848323552E+04   -0.55672E+01   -0.31743E+00  4047   0.266E+00    0.334E-01
RMM:   2    -0.302857444136E+04   -0.91206E-01   -0.91930E-01  4061   0.954E-01    0.407E-01
RMM:   3    -0.302859245046E+04   -0.18009E-01   -0.19874E-01  4654   0.259E-01    0.383E-01
RMM:   4    -0.302859226219E+04    0.18827E-03   -0.17475E-02  3774   0.259E-01    0.250E-01
RMM:   5    -0.302859214670E+04    0.11549E-03   -0.23833E-03  4456   0.458E-02    0.193E-01
RMM:   6    -0.302859189046E+04    0.25625E-03   -0.16757E-03  3993   0.570E-02    0.152E-01
RMM:   7    -0.302859173387E+04    0.15658E-03   -0.12163E-03  3942   0.464E-02    0.779E-02
RMM:   8    -0.302859174407E+04   -0.10194E-04   -0.52141E-04  3760   0.273E-02    0.593E-02
RMM:   9    -0.302859171354E+04    0.30526E-04   -0.14214E-04  2842   0.226E-02    0.418E-02
RMM:  10    -0.302859169007E+04    0.23474E-04   -0.76347E-05  2564   0.154E-02    0.267E-02
RMM:  11    -0.302859168135E+04    0.87219E-05   -0.38426E-05  1913   0.898E-03
   65 T=  4284. E= -.32711366E+04 F= -.30940518E+04 E0= -.30879254E+04  EK= 0.24863E+03 SP= -.43E+03 SK= 0.20E+01
       N       E                     dE             d eps       ncg     rms          rms(c)
RMM:   1    -0.303425048963E+04   -0.56588E+01   -0.31522E+00  3936   0.278E+00    0.332E-01
RMM:   2    -0.303434940380E+04   -0.98914E-01   -0.99700E-01  4030   0.965E-01    0.381E-01
RMM:   3    -0.303436693205E+04   -0.17528E-01   -0.19415E-01  4703   0.260E-01    0.380E-01
RMM:   4    -0.303436655104E+04    0.38101E-03   -0.15724E-02  3802   0.229E-01    0.241E-01
RMM:   5    -0.303436646744E+04    0.83606E-04   -0.24842E-03  4380   0.455E-02    0.199E-01
RMM:   6    -0.303436619335E+04    0.27409E-03   -0.17252E-03  3957   0.596E-02    0.168E-01
RMM:   7    -0.303436601527E+04    0.17808E-03   -0.15481E-03  3993   0.503E-02    0.878E-02
RMM:   8    -0.303436601437E+04    0.89683E-06   -0.56095E-04  3682   0.305E-02    0.655E-02
RMM:   9    -0.303436597727E+04    0.37099E-04   -0.17217E-04  3023   0.230E-02    0.452E-02
RMM:  10    -0.303436594791E+04    0.29365E-04   -0.96039E-05  2725   0.175E-02    0.271E-02
RMM:  11    -0.303436593936E+04    0.85496E-05   -0.54416E-05  2230   0.101E-02
   66 T=  4321. E= -.32709944E+04 F= -.30998097E+04 E0= -.30937841E+04  EK= 0.25078E+03 SP= -.42E+03 SK= 0.15E+01
       N       E                     dE             d eps       ncg     rms          rms(c)
RMM:   1    -0.303973913338E+04   -0.53732E+01   -0.29635E+00  3839   0.284E+00    0.342E-01
RMM:   2    -0.303983765200E+04   -0.98519E-01   -0.99401E-01  3998   0.941E-01    0.377E-01
RMM:   3    -0.303985324719E+04   -0.15595E-01   -0.17678E-01  4819   0.255E-01    0.344E-01
RMM:   4    -0.303985267024E+04    0.57694E-03   -0.10952E-02  3875   0.175E-01    0.233E-01
RMM:   5    -0.303985259225E+04    0.77992E-04   -0.21731E-03  4400   0.427E-02    0.214E-01
RMM:   6    -0.303985225815E+04    0.33409E-03   -0.16550E-03  3950   0.599E-02    0.175E-01
RMM:   7    -0.303985206917E+04    0.18898E-03   -0.17259E-03  4036   0.504E-02    0.880E-02
RMM:   8    -0.303985205803E+04    0.11143E-04   -0.52474E-04  3635   0.313E-02    0.629E-02
RMM:   9    -0.303985202117E+04    0.36861E-04   -0.16379E-04  3048   0.212E-02    0.445E-02
RMM:  10    -0.303985199749E+04    0.23678E-04   -0.94451E-05  2663   0.169E-02    0.308E-02
RMM:  11    -0.303985198681E+04    0.10685E-04   -0.44488E-05  2028   0.960E-03    0.163E-02
RMM:  12    -0.303985198430E+04    0.25120E-05   -0.18484E-05  1657   0.860E-03
   67 T=  4361. E= -.32708505E+04 F= -.31052827E+04 E0= -.30993439E+04  EK= 0.25309E+03 SP= -.42E+03 SK= 0.11E+01
[...]
RMM:   8    -0.323231332515E+04    0.15196E-04   -0.17630E-04  2913   0.171E-02    0.269E-02
RMM:   9    -0.323231331627E+04    0.88799E-05   -0.49232E-05  2167   0.157E-02
  851 T=  3582. E= -.31722424E+04 F= -.32967404E+04 E0= -.32944456E+04  EK= 0.20788E+03 SP= -.83E+02 SK= 0.21E-02
       N       E                     dE             d eps       ncg     rms          rms(c)
RMM:   1    -0.323111562206E+04    0.11977E+01   -0.34881E+00  4221   0.233E+00    0.271E-01
RMM:   2    -0.323118013700E+04   -0.64515E-01   -0.66193E-01  3876   0.983E-01    0.209E-01
RMM:   3    -0.323120274023E+04   -0.22603E-01   -0.23572E-01  4141   0.260E-01    0.229E-01
RMM:   4    -0.323120416221E+04   -0.14220E-02   -0.26447E-02  3400   0.380E-01    0.149E-01
RMM:   5    -0.323120414552E+04    0.16690E-04   -0.25548E-03  4089   0.588E-02    0.111E-01
RMM:   6    -0.323120406216E+04    0.83363E-04   -0.14730E-03  4051   0.415E-02    0.537E-02
RMM:   7    -0.323120410698E+04   -0.44816E-04   -0.44314E-04  3430   0.344E-02    0.544E-02
RMM:   8    -0.323120409199E+04    0.14991E-04   -0.16965E-04  2891   0.162E-02    0.308E-02
RMM:   9    -0.323120407929E+04    0.12692E-04   -0.53241E-05  2214   0.166E-02    0.177E-02
RMM:  10    -0.323120407250E+04    0.67907E-05   -0.24289E-05  1736   0.839E-03
  852 T=  3563. E= -.31721811E+04 F= -.32956362E+04 E0= -.32933634E+04  EK= 0.20679E+03 SP= -.83E+02 SK= 0.18E-02
       N       E                     dE             d eps       ncg     rms          rms(c)
RMM:   1    -0.322880611151E+04    0.23980E+01   -0.36519E+00  4301   0.227E+00    0.255E-01
RMM:   2    -0.322886479194E+04   -0.58680E-01   -0.60223E-01  3898   0.968E-01    0.231E-01
RMM:   3    -0.322888583098E+04   -0.21039E-01   -0.22045E-01  4100   0.256E-01    0.248E-01
RMM:   4    -0.322888709569E+04   -0.12647E-02   -0.26155E-02  3495   0.370E-01    0.143E-01
RMM:   5    -0.322888715158E+04   -0.55897E-04   -0.25455E-03  4166   0.564E-02    0.134E-01
RMM:   6    -0.322888701490E+04    0.13668E-03   -0.13124E-03  4053   0.407E-02    0.752E-02
RMM:   7    -0.322888700093E+04    0.13970E-04   -0.48627E-04  3549   0.331E-02    0.409E-02
RMM:   8    -0.322888699896E+04    0.19746E-05   -0.17391E-04  3004   0.174E-02    0.286E-02
RMM:   9    -0.322888699105E+04    0.79065E-05   -0.48411E-05  2106   0.148E-02
  853 T=  3520. E= -.31721002E+04 F= -.32933243E+04 E0= -.32910764E+04  EK= 0.20431E+03 SP= -.83E+02 SK= 0.14E-01
       N       E                     dE             d eps       ncg     rms          rms(c)
RMM:   1    -0.322564665826E+04    0.32403E+01   -0.33470E+00  4261   0.224E+00    0.272E-01
RMM:   2    -0.322570561059E+04   -0.58952E-01   -0.60561E-01  3921   0.948E-01    0.240E-01
RMM:   3    -0.322572579356E+04   -0.20183E-01   -0.21101E-01  4138   0.253E-01    0.271E-01
RMM:   4    -0.322572667499E+04   -0.88142E-03   -0.22749E-02  3481   0.348E-01    0.142E-01
RMM:   5    -0.322572673042E+04   -0.55431E-04   -0.25530E-03  4184   0.534E-02    0.119E-01
RMM:   6    -0.322572660428E+04    0.12614E-03   -0.11912E-03  4024   0.388E-02    0.642E-02
RMM:   7    -0.322572663181E+04   -0.27538E-04   -0.44591E-04  3462   0.333E-02    0.642E-02
RMM:   8    -0.322572660687E+04    0.24940E-04   -0.18735E-04  3052   0.169E-02    0.309E-02
RMM:   9    -0.322572659441E+04    0.12463E-04   -0.48567E-05  2185   0.160E-02    0.170E-02
RMM:  10    -0.322572658843E+04    0.59844E-05   -0.23358E-05  1707   0.825E-03
  854 T=  3461. E= -.31720061E+04 F= -.32901692E+04 E0= -.32879459E+04  EK= 0.20086E+03 SP= -.83E+02 SK= 0.34E-01
       N       E                     dE             d eps       ncg     rms          rms(c)
RMM:   1    -0.322218196559E+04    0.35446E+01   -0.35897E+00  4361   0.217E+00    0.249E-01
RMM:   2    -0.322223106521E+04   -0.49100E-01   -0.50715E-01  3872   0.946E-01    0.218E-01
RMM:   3    -0.322225146812E+04   -0.20403E-01   -0.21160E-01  4012   0.253E-01    0.268E-01
RMM:   4    -0.322225233091E+04   -0.86279E-03   -0.22723E-02  3504   0.346E-01    0.127E-01
RMM:   5    -0.322225238632E+04   -0.55410E-04   -0.25398E-03  4160   0.560E-02    0.113E-01
RMM:   6    -0.322225234731E+04    0.39013E-04   -0.11240E-03  3981   0.375E-02    0.880E-02
RMM:   7    -0.322225231049E+04    0.36815E-04   -0.36375E-04  3465   0.305E-02    0.474E-02
RMM:   8    -0.322225229453E+04    0.15959E-04   -0.13588E-04  2777   0.169E-02    0.248E-02
RMM:   9    -0.322225228723E+04    0.72999E-05   -0.40801E-05  1996   0.134E-02
  855 T=  3394. E= -.31719092E+04 F= -.32867004E+04 E0= -.32845007E+04  EK= 0.19698E+03 SP= -.82E+02 SK= 0.51E-01
       N       E                     dE             d eps       ncg     rms          rms(c)
RMM:   1    -0.321896549096E+04    0.32868E+01   -0.34916E+00  4326   0.218E+00    0.268E-01
RMM:   2    -0.321901693150E+04   -0.51441E-01   -0.53177E-01  3884   0.956E-01    0.219E-01
RMM:   3    -0.321903721119E+04   -0.20280E-01   -0.21183E-01  4101   0.252E-01    0.237E-01
RMM:   4    -0.321903858107E+04   -0.13699E-02   -0.26018E-02  3478   0.376E-01    0.136E-01
RMM:   5    -0.321903864816E+04   -0.67086E-04   -0.25580E-03  4163   0.554E-02    0.108E-01
RMM:   6    -0.321903863634E+04    0.11819E-04   -0.10817E-03  4061   0.360E-02    0.962E-02
RMM:   7    -0.321903857584E+04    0.60501E-04   -0.35549E-04  3497   0.291E-02    0.472E-02
RMM:   8    -0.321903857027E+04    0.55688E-05   -0.14255E-04  2812   0.170E-02    0.296E-02
RMM:   9    -0.321903855940E+04    0.10877E-04   -0.36441E-05  1947   0.127E-02    0.143E-02
RMM:  10    -0.321903855670E+04    0.27002E-05   -0.15769E-05  1694   0.783E-03
  856 T=  3330. E= -.31718185E+04 F= -.32834923E+04 E0= -.32813156E+04  EK= 0.19329E+03 SP= -.82E+02 SK= 0.62E-01
       N       E                     dE             d eps       ncg     rms          rms(c)
RMM:   1    -0.321651471981E+04    0.25238E+01   -0.36017E+00  4379   0.215E+00    0.279E-01
RMM:   2    -0.321656353998E+04   -0.48820E-01   -0.50471E-01  3871   0.949E-01    0.274E-01
RMM:   3    -0.321658269114E+04   -0.19151E-01   -0.20631E-01  4104   0.255E-01    0.202E-01
RMM:   4    -0.321658436291E+04   -0.16718E-02   -0.28188E-02  3557   0.378E-01    0.131E-01
RMM:   5    -0.321658445159E+04   -0.88677E-04   -0.25065E-03  4166   0.553E-02    0.111E-01
RMM:   6    -0.321658449381E+04   -0.42217E-04   -0.97243E-04  3997   0.344E-02    0.129E-01
RMM:   7    -0.321658437380E+04    0.12001E-03   -0.33739E-04  3448   0.275E-02    0.497E-02
RMM:   8    -0.321658436966E+04    0.41432E-05   -0.15004E-04  2902   0.174E-02    0.289E-02
RMM:   9    -0.321658436370E+04    0.59551E-05   -0.44986E-05  2002   0.127E-02
  857 T=  3279. E= -.31717422E+04 F= -.32810435E+04 E0= -.32788886E+04  EK= 0.19033E+03 SP= -.81E+02 SK= 0.65E-01
       N       E                     dE             d eps       ncg     rms          rms(c)
RMM:   1    -0.321513042247E+04    0.14539E+01   -0.34573E+00  4358   0.218E+00    0.273E-01
RMM:   2    -0.321518157586E+04   -0.51153E-01   -0.52671E-01  3936   0.899E-01    0.280E-01
RMM:   3    -0.321519931753E+04   -0.17742E-01   -0.19341E-01  4137   0.247E-01    0.185E-01
RMM:   4    -0.321520063593E+04   -0.13184E-02   -0.24378E-02  3574   0.349E-01    0.117E-01
RMM:   5    -0.321520079277E+04   -0.15684E-03   -0.23432E-03  4133   0.538E-02    0.131E-01
RMM:   6    -0.321520070247E+04    0.90306E-04   -0.86650E-04  3988   0.333E-02    0.783E-02
RMM:   7    -0.321520071861E+04   -0.16143E-04   -0.33559E-04  3409   0.256E-02    0.762E-02
RMM:   8    -0.321520067824E+04    0.40371E-04   -0.12311E-04  2695   0.169E-02    0.301E-02
RMM:   9    -0.321520067075E+04    0.74849E-05   -0.34690E-05  1859   0.113E-02
  858 T=  3247. E= -.31716876E+04 F= -.32796649E+04 E0= -.32775296E+04  EK= 0.18843E+03 SP= -.81E+02 SK= 0.62E-01
       N       E                     dE             d eps       ncg     rms          rms(c)
RMM:   1    -0.321486004379E+04    0.34063E+00   -0.33395E+00  4333   0.216E+00    0.250E-01
RMM:   2    -0.321491004117E+04   -0.49997E-01   -0.51353E-01  3904   0.899E-01    0.245E-01
RMM:   3    -0.321492844869E+04   -0.18408E-01   -0.19574E-01  4120   0.242E-01    0.207E-01
RMM:   4    -0.321492979826E+04   -0.13496E-02   -0.25101E-02  3523   0.355E-01    0.124E-01
RMM:   5    -0.321492994298E+04   -0.14472E-03   -0.23967E-03  4170   0.524E-02    0.130E-01
RMM:   6    -0.321492983979E+04    0.10319E-03   -0.94053E-04  4000   0.353E-02    0.751E-02
RMM:   7    -0.321492985506E+04   -0.15268E-04   -0.34299E-04  3559   0.267E-02    0.697E-02
RMM:   8    -0.321492982097E+04    0.34095E-04   -0.14131E-04  2844   0.169E-02    0.260E-02
RMM:   9    -0.321492981600E+04    0.49718E-05   -0.39274E-05  1934   0.122E-02
  859 T=  3233. E= -.31716525E+04 F= -.32793982E+04 E0= -.32772781E+04  EK= 0.18765E+03 SP= -.80E+02 SK= 0.55E-01
       N       E                     dE             d eps       ncg     rms          rms(c)
RMM:   1    -0.321548001982E+04   -0.55020E+00   -0.32287E+00  4298   0.217E+00    0.240E-01
RMM:   2    -0.321553043484E+04   -0.50415E-01   -0.51782E-01  3862   0.907E-01    0.213E-01
RMM:   3    -0.321555007024E+04   -0.19635E-01   -0.20420E-01  4115   0.243E-01    0.226E-01
RMM:   4    -0.321555146901E+04   -0.13988E-02   -0.26351E-02  3476   0.367E-01    0.124E-01
RMM:   5    -0.321555159296E+04   -0.12395E-03   -0.24774E-03  4119   0.550E-02    0.125E-01
RMM:   6    -0.321555150837E+04    0.84596E-04   -0.97538E-04  3968   0.359E-02    0.727E-02
RMM:   7    -0.321555151395E+04   -0.55860E-05   -0.39169E-04  3632   0.274E-02    0.518E-02
RMM:   8    -0.321555150579E+04    0.81666E-05   -0.13192E-04  2714   0.173E-02    0.338E-02
RMM:   9    -0.321555149483E+04    0.10957E-04   -0.37683E-05  1932   0.128E-02    0.180E-02
RMM:  10    -0.321555149065E+04    0.41777E-05   -0.18769E-05  1706   0.810E-03
  860 T=  3236. E= -.31716313E+04 F= -.32800227E+04 E0= -.32779112E+04  EK= 0.18779E+03 SP= -.79E+02 SK= 0.48E-01
       N       E                     dE             d eps       ncg     rms          rms(c)
RMM:   1    -0.321659128809E+04   -0.10398E+01   -0.30938E+00  4249   0.217E+00    0.235E-01
RMM:   2    -0.321664473928E+04   -0.53451E-01   -0.54518E-01  3869   0.910E-01    0.240E-01
RMM:   3    -0.321666439552E+04   -0.19656E-01   -0.20513E-01  4147   0.244E-01    0.237E-01
RMM:   4    -0.321666546118E+04   -0.10657E-02   -0.23701E-02  3420   0.362E-01    0.131E-01
RMM:   5    -0.321666554295E+04   -0.81763E-04   -0.25109E-03  4141   0.555E-02    0.126E-01
RMM:   6    -0.321666544696E+04    0.95982E-04   -0.11190E-03  4005   0.382E-02    0.717E-02
RMM:   7    -0.321666545392E+04   -0.69563E-05   -0.43397E-04  3653   0.295E-02    0.478E-02
RMM:   8    -0.321666545105E+04    0.28669E-05   -0.15074E-04  2808   0.172E-02    0.346E-02
RMM:   9    -0.321666543880E+04    0.12256E-04   -0.43970E-05  2027   0.141E-02    0.185E-02
RMM:  10    -0.321666543314E+04    0.56537E-05   -0.20909E-05  1705   0.859E-03
  861 T=  3247. E= -.31716117E+04 F= -.32811377E+04 E0= -.32790263E+04  EK= 0.18843E+03 SP= -.79E+02 SK= 0.43E-01
       N       E                     dE             d eps       ncg     rms          rms(c)
RMM:   1    -0.321776872610E+04   -0.11033E+01   -0.32110E+00  4266   0.222E+00    0.238E-01
RMM:   2    -0.321782856143E+04   -0.59835E-01   -0.61047E-01  3982   0.891E-01    0.235E-01
RMM:   3    -0.321784571544E+04   -0.17154E-01   -0.18133E-01  4163   0.238E-01    0.240E-01
RMM:   4    -0.321784661817E+04   -0.90273E-03   -0.21522E-02  3490   0.335E-01    0.129E-01
RMM:   5    -0.321784662856E+04   -0.10385E-04   -0.22336E-03  4104   0.543E-02    0.119E-01
RMM:   6    -0.321784655487E+04    0.73689E-04   -0.11324E-03  3979   0.381E-02    0.668E-02
RMM:   7    -0.321784656201E+04   -0.71441E-05   -0.40226E-04  3556   0.298E-02    0.401E-02
RMM:   8    -0.321784655796E+04    0.40570E-05   -0.13595E-04  2709   0.169E-02    0.279E-02
RMM:   9    -0.321784654795E+04    0.10006E-04   -0.47821E-05  2091   0.147E-02    0.183E-02
RMM:  10    -0.321784654219E+04    0.57651E-05   -0.20911E-05  1691   0.822E-03
  862 T=  3259. E= -.31715834E+04 F= -.32823178E+04 E0= -.32801955E+04  EK= 0.18918E+03 SP= -.78E+02 SK= 0.40E-01
       N       E                     dE             d eps       ncg     rms          rms(c)
RMM:   1    -0.321871120359E+04   -0.86466E+00   -0.31966E+00  4236   0.224E+00    0.240E-01
RMM:   2    -0.321877344084E+04   -0.62237E-01   -0.63395E-01  3944   0.911E-01    0.249E-01
RMM:   3    -0.321879166143E+04   -0.18221E-01   -0.19276E-01  4185   0.243E-01    0.233E-01
RMM:   4    -0.321879268288E+04   -0.10214E-02   -0.22958E-02  3479   0.342E-01    0.134E-01
RMM:   5    -0.321879267512E+04    0.77589E-05   -0.26275E-03  4144   0.554E-02    0.119E-01
RMM:   6    -0.321879260793E+04    0.67194E-04   -0.12063E-03  3985   0.394E-02    0.745E-02
RMM:   7    -0.321879261142E+04   -0.34954E-05   -0.46371E-04  3571   0.313E-02    0.460E-02
RMM:   8    -0.321879260498E+04    0.64413E-05   -0.15498E-04  2805   0.180E-02    0.338E-02
RMM:   9    -0.321879259387E+04    0.11111E-04   -0.53755E-05  2116   0.152E-02    0.250E-02
RMM:  10    -0.321879258250E+04    0.11372E-04   -0.27500E-05  1758   0.915E-03    0.884E-03
RMM:  11    -0.321879258222E+04    0.27570E-06   -0.18997E-05  1676   0.765E-03
  863 T=  3269. E= -.31715401E+04 F= -.32832608E+04 E0= -.32811157E+04  EK= 0.18970E+03 SP= -.78E+02 SK= 0.39E-01
       N       E                     dE             d eps       ncg     rms          rms(c)
RMM:   1    -0.321932528689E+04   -0.53270E+00   -0.32606E+00  4238   0.226E+00    0.240E-01
RMM:   2    -0.321938929341E+04   -0.64007E-01   -0.65256E-01  3938   0.922E-01    0.227E-01
RMM:   3    -0.321940802062E+04   -0.18727E-01   -0.19791E-01  4190   0.246E-01    0.226E-01
RMM:   4    -0.321940904165E+04   -0.10210E-02   -0.22475E-02  3468   0.334E-01    0.135E-01
RMM:   5    -0.321940900700E+04    0.34643E-04   -0.25126E-03  4125   0.554E-02    0.111E-01
RMM:   6    -0.321940892620E+04    0.80805E-04   -0.12658E-03  3981   0.402E-02    0.666E-02
RMM:   7    -0.321940894741E+04   -0.21214E-04   -0.46936E-04  3549   0.334E-02    0.577E-02
RMM:   8    -0.321940893306E+04    0.14357E-04   -0.16807E-04  2946   0.178E-02    0.332E-02
RMM:   9    -0.321940891593E+04    0.17126E-04   -0.56959E-05  2197   0.160E-02    0.217E-02
RMM:  10    -0.321940890920E+04    0.67324E-05   -0.29399E-05  1790   0.830E-03
  864 T=  3272. E= -.31714828E+04 F= -.32838724E+04 E0= -.32816943E+04  EK= 0.18992E+03 SP= -.78E+02 SK= 0.38E-01
       N       E                     dE             d eps       ncg     rms          rms(c)
RMM:   1    -0.321971372299E+04   -0.30481E+00   -0.31528E+00  4238   0.221E+00    0.241E-01
RMM:   2    -0.321977620509E+04   -0.62482E-01   -0.63783E-01  3963   0.903E-01    0.225E-01
RMM:   3    -0.321979419219E+04   -0.17987E-01   -0.19050E-01  4180   0.240E-01    0.226E-01
RMM:   4    -0.321979513489E+04   -0.94271E-03   -0.21553E-02  3458   0.332E-01    0.132E-01
RMM:   5    -0.321979504799E+04    0.86905E-04   -0.24857E-03  4123   0.563E-02    0.900E-02
RMM:   6    -0.321979507099E+04   -0.22997E-04   -0.12301E-03  4000   0.381E-02    0.864E-02
RMM:   7    -0.321979505048E+04    0.20503E-04   -0.42299E-04  3488   0.338E-02    0.525E-02
RMM:   8    -0.321979503926E+04    0.11228E-04   -0.14312E-04  2827   0.172E-02    0.341E-02
RMM:   9    -0.321979502347E+04    0.15781E-04   -0.46971E-05  2083   0.146E-02    0.235E-02
RMM:  10    -0.321979501404E+04    0.94294E-05   -0.28726E-05  1795   0.871E-03
  865 T=  3272. E= -.31714187E+04 F= -.32842523E+04 E0= -.32820354E+04  EK= 0.18991E+03 SP= -.77E+02 SK= 0.39E-01
       N       E                     dE             d eps       ncg     rms          rms(c)
RMM:   1    -0.322006957521E+04   -0.27455E+00   -0.31206E+00  4244   0.219E+00    0.233E-01
RMM:   2    -0.322012794054E+04   -0.58365E-01   -0.59483E-01  3917   0.900E-01    0.235E-01
RMM:   3    -0.322014663144E+04   -0.18691E-01   -0.19755E-01  4114   0.243E-01    0.223E-01
RMM:   4    -0.322014770944E+04   -0.10780E-02   -0.23386E-02  3439   0.350E-01    0.128E-01
RMM:   5    -0.322014763168E+04    0.77755E-04   -0.25230E-03  4132   0.571E-02    0.893E-02
RMM:   6    -0.322014766633E+04   -0.34647E-04   -0.12216E-03  4028   0.370E-02    0.875E-02
RMM:   7    -0.322014763174E+04    0.34595E-04   -0.38520E-04  3548   0.307E-02    0.414E-02
RMM:   8    -0.322014762727E+04    0.44707E-05   -0.11952E-04  2637   0.161E-02    0.310E-02
RMM:   9    -0.322014761030E+04    0.16966E-04   -0.42122E-05  2038   0.139E-02    0.167E-02
RMM:  10    -0.322014760633E+04    0.39704E-05   -0.22612E-05  1707   0.758E-03
  866 T=  3271. E= -.31713564E+04 F= -.32845973E+04 E0= -.32823421E+04  EK= 0.18986E+03 SP= -.77E+02 SK= 0.39E-01
       N       E                     dE             d eps       ncg     rms          rms(c)
RMM:   1    -0.322057092326E+04   -0.42331E+00   -0.32417E+00  4304   0.214E+00    0.229E-01
RMM:   2    -0.322062446392E+04   -0.53541E-01   -0.54806E-01  3899   0.899E-01    0.222E-01
RMM:   3    -0.322064287490E+04   -0.18411E-01   -0.19433E-01  4068   0.240E-01    0.208E-01
RMM:   4    -0.322064412382E+04   -0.12489E-02   -0.24158E-02  3502   0.350E-01    0.114E-01
RMM:   5    -0.322064414174E+04   -0.17919E-04   -0.24532E-03  4138   0.561E-02    0.902E-02
RMM:   6    -0.322064416690E+04   -0.25161E-04   -0.10234E-03  4014   0.343E-02    0.799E-02
RMM:   7    -0.322064414078E+04    0.26116E-04   -0.28621E-04  3433   0.262E-02    0.429E-02
RMM:   8    -0.322064413160E+04    0.91825E-05   -0.92737E-05  2449   0.149E-02
  867 T=  3273. E= -.31713031E+04 F= -.32850852E+04 E0= -.32827965E+04  EK= 0.18994E+03 SP= -.76E+02 SK= 0.40E-01
       N       E                     dE             d eps       ncg     rms          rms(c)
RMM:   1    -0.322129042135E+04   -0.64628E+00   -0.31675E+00  4310   0.210E+00    0.241E-01
RMM:   2    -0.322134187011E+04   -0.51449E-01   -0.52866E-01  3882   0.890E-01    0.224E-01
RMM:   3    -0.322136052107E+04   -0.18651E-01   -0.19672E-01  4102   0.240E-01    0.205E-01
RMM:   4    -0.322136161104E+04   -0.10900E-02   -0.22899E-02  3508   0.338E-01    0.106E-01
RMM:   5    -0.322136166210E+04   -0.51064E-04   -0.23636E-03  4115   0.538E-02    0.756E-02
RMM:   6    -0.322136170361E+04   -0.41510E-04   -0.90802E-04  4017   0.324E-02    0.704E-02
RMM:   7    -0.322136169056E+04    0.13048E-04   -0.24870E-04  3257   0.251E-02    0.468E-02
RMM:   8    -0.322136167619E+04    0.14373E-04   -0.77938E-05  2363   0.139E-02    0.216E-02
RMM:   9    -0.322136166918E+04    0.70106E-05   -0.23358E-05  1749   0.100E-02
  868 T=  3278. E= -.31712596E+04 F= -.32857931E+04 E0= -.32834774E+04  EK= 0.19023E+03 SP= -.76E+02 SK= 0.41E-01
       N       E                     dE             d eps       ncg     rms          rms(c)
RMM:   1    -0.322218914542E+04   -0.82747E+00   -0.32436E+00  4335   0.212E+00    0.225E-01
RMM:   2    -0.322224129072E+04   -0.52145E-01   -0.52936E-01  3881   0.878E-01    0.303E-01
RMM:   3    -0.322225905401E+04   -0.17763E-01   -0.19256E-01  4021   0.246E-01    0.208E-01
RMM:   4    -0.322225990239E+04   -0.84837E-03   -0.20588E-02  3541   0.322E-01    0.115E-01
RMM:   5    -0.322225997635E+04   -0.73963E-04   -0.23303E-03  4179   0.514E-02    0.101E-01
RMM:   6    -0.322225991170E+04    0.64651E-04   -0.10085E-03  3986   0.358E-02    0.568E-02
RMM:   7    -0.322225992579E+04   -0.14091E-04   -0.28764E-04  3342   0.262E-02    0.484E-02
RMM:   8    -0.322225991203E+04    0.13763E-04   -0.99377E-05  2598   0.147E-02    0.259E-02
RMM:   9    -0.322225990764E+04    0.43809E-05   -0.28847E-05  1827   0.111E-02
  869 T=  3286. E= -.31712207E+04 F= -.32866811E+04 E0= -.32843476E+04  EK= 0.19069E+03 SP= -.75E+02 SK= 0.43E-01
       N       E                     dE             d eps       ncg     rms          rms(c)
RMM:   1    -0.322316713963E+04   -0.90723E+00   -0.34074E+00  4355   0.214E+00    0.234E-01
