LAMMPS (29 Oct 2020)
OMP_NUM_THREADS environment is not set. Defaulting to 1 thread. (src/comm.cpp:94)
  using 1 OpenMP thread(s) per MPI task
units 		real
dimension 	3
processors 	* * *
boundary 	p p p
atom_style 	charge
atom_modify	map array

#pair_style     hybrid/overlay coul/long 10.0 table linear 10000
pair_style     table linear 10000
read_data       tmp.dat
Reading data file ...
  orthogonal box = (-0.42652611 -0.42652611 -0.42652611) to (19.151951 19.151951 19.151951)
  2 by 3 by 4 MPI processor grid
  reading atoms ...
  450 atoms
  reading velocities ...
  450 velocities
  read_data CPU = 0.007 seconds
#pair_coeff     * * coul/long
pair_coeff     2 2 ../ff_fitting.table OO
WARNING: 30 of 8000 force values in table OO are inconsistent with -dE/dr.
  Should only be flagged at inflection points (src/pair_table.cpp:461)
pair_coeff     1 2 ../ff_fitting.table SiO
WARNING: 7 of 8000 force values in table SiO are inconsistent with -dE/dr.
  Should only be flagged at inflection points (src/pair_table.cpp:461)
pair_coeff     1 1 ../ff_fitting.table SiSi
WARNING: 16 of 8000 force values in table SiSi are inconsistent with -dE/dr.
  Should only be flagged at inflection points (src/pair_table.cpp:461)

#kspace_style    pppm 1.0e-5
neighbor        2.0 bin
neigh_modify    every 1 check yes
timestep	1

dump 1 all custom 100000 sim.xyz id type x y z

thermo_style    custom step temp pe press pxx pyy pzz pxy pxz pyz lx ly lz xy yz xz density
thermo          100000

##generate velocity
velocity        all create 3000 23980
#velocity       all scale 0

#NVT run
fix              1 all npt temp 3000 0.01 100 iso 0 0 1000
run              30000000
Neighbor list info ...
  update every 1 steps, delay 10 steps, check yes
  max neighbors/atom: 2000, page size: 100000
  master list distance cutoff = 10
  ghost atom cutoff = 10
  binsize = 5, bins = 4 4 4
  1 neighbor lists, perpetual/occasional/extra = 1 0 0
  (1) pair table, perpetual
      attributes: half, newton on
      pair build: half/bin/atomonly/newton
      stencil: half/bin/3d/newton
      bin: standard
Per MPI rank memory allocation (min/avg/max) = 4.377 | 4.381 | 4.384 Mbytes
Step Temp PotEng Press Pxx Pyy Pzz Pxy Pxz Pyz Lx Ly Lz Xy Yz Xz Density 
       0         3000   -39923.927   -4451.1413   -14441.443    5098.0247   -4010.0059    1714.6009   -2202.7488   -5188.1744    19.578477    19.578477    19.578477            0            0            0    1.9941047 
  100000    2980.0626   -39639.142     10978.03    11327.434    7317.1501    14289.507   -4145.7549   -2826.2643    1458.9503    19.226253    19.226253    19.226253            0            0            0    2.1057204 
  200000    3162.8127   -40496.385    7310.3589     8037.265   -1933.9861    15827.798    4503.0488    1373.8784    2701.4291     19.36587     19.36587     19.36587            0            0            0     2.060505 
  300000    2915.2991   -40106.216   -10278.191   -17567.517    -1282.161   -11984.895   -1037.4753   -8286.9504    -3205.418    19.240739    19.240739    19.240739            0            0            0     2.100968 
  400000    3043.2109   -39818.593    1323.1409   -596.44642    1453.2211     3112.648    871.19908    5312.6531   -526.14705    19.581733    19.581733    19.581733            0            0            0    1.9931102 
  500000    2876.1784   -39783.198    7957.5725    8412.5482    -488.4074    15948.577   -581.15316   -10185.257   -7567.2668    19.493192    19.493192    19.493192            0            0            0    2.0203928 
  600000    2757.2248   -39695.239   -3320.9315   -6008.5789    3087.6028   -7041.8186   -3092.3018    1091.7287    8245.4245    19.326077    19.326077    19.326077            0            0            0    2.0732591 
  700000    2848.9386   -39958.679   -618.33389   -610.80504   -1785.6857    541.48909    978.59493    3186.4112    8714.6417    19.545386    19.545386    19.545386            0            0            0    2.0042504 
  800000    2709.9909   -40194.118   -17862.331   -27678.978   -6441.8814   -19466.134   -2479.4518   -1617.9632   -1333.5113    19.565659    19.565659    19.565659            0            0            0    1.9980266 
  900000    2854.8064   -39573.737   -5864.5225   -4644.6155   -14673.235    1724.2829   -1136.8603   -5628.8153    1422.5767    19.687159    19.687159    19.687159            0            0            0    1.9612618 
 1000000    2951.1781   -40181.878    739.41348   -4164.4816    4279.5315    2103.1906   -844.36417   -9220.8149   -7390.0311    19.353548    19.353548    19.353548            0            0            0     2.064443 
 1100000    2899.9822   -40210.171   -4559.2897    -7941.301   -8742.2026    3005.6344    6528.4583    6092.2881   -212.17607    19.725674    19.725674    19.725674            0            0            0    1.9497957 
 1200000    2863.4289   -40166.622   -269.24269   -9406.5311     4307.595     4291.208   -9436.4954    10600.636   -7748.1205    19.611569    19.611569    19.611569            0            0            0    1.9840275 
 1300000    2866.7972   -39993.832    2606.9436    2932.8911    236.50377    4651.4359   -3019.7443    948.66621    4575.7647    19.339872    19.339872    19.339872            0            0            0    2.0688257 
 1400000    2834.2087   -40226.302    4058.2128    5090.5914   -8146.2981    15230.345   -5774.5725    267.07609    2139.2321    19.482555    19.482555    19.482555            0            0            0     2.023704 
 1500000    2789.9465   -40832.262    864.26664    -10813.58    8993.1825    4413.1973    2536.4656    4750.0051    2604.2967    19.208347    19.208347    19.208347            0            0            0    2.1116151 
 1600000    2670.9356   -40341.009   -6230.2802    -17433.34    1275.6425   -2533.1435    804.78737   -5982.6532    1417.3136    19.450132    19.450132    19.450132            0            0            0    2.0338411 
 1700000    2863.4567   -40486.492   -6707.9358   -12063.007   -7479.0896   -581.71104    -4743.225    -2210.902    2220.4004    19.577572    19.577572    19.577572            0            0            0    1.9943814 
 1800000     2592.717   -40635.529    2824.4353    5135.8249    7264.6572   -3927.1762    4070.4525    -302.1117   -3594.6842    19.259739    19.259739    19.259739            0            0            0    2.0947563 
 1900000    2927.9427   -40473.026    6982.7764     9764.226    6466.6175    4717.4856    353.33751    4343.1926   -4719.9599    19.356169    19.356169    19.356169            0            0            0    2.0636046 
 2000000    2789.0521   -40423.881   -3411.4486    1600.4039   -9354.1644   -2480.5851    2909.1233    602.72699    8778.5175    19.285732    19.285732    19.285732            0            0            0     2.086298 
 2100000    2694.9356   -40544.315   -14549.996   -19534.183    4985.3812   -29101.185    4335.8284   -1264.5907    8546.5239    19.176243    19.176243    19.176243            0            0            0    2.1222383 
 2200000    2835.0536   -40433.247   -10781.164   -13029.276   -2506.3102   -16807.906    3118.0529   -2120.9412    773.45594    19.573796    19.573796    19.573796            0            0            0    1.9955357 
 2300000    2717.5014   -40636.475    10341.622    21264.042    5524.5049    4236.3185   -3219.3819    2089.5989   -6311.9621    19.286623    19.286623    19.286623            0            0            0    2.0860088 
 2400000    2775.5799   -40165.849   -5983.3297   -4414.4695   -12267.872   -1267.6473    1525.0824    2387.3569   -8688.7573    19.573537    19.573537    19.573537            0            0            0    1.9956149 
 2500000    2688.0458     -40544.9    6185.9507    9796.2097      11025.2   -2263.5574   -7014.5465    -4314.063   -3634.1631    19.146418    19.146418    19.146418            0            0            0    2.1321714 
 2600000    2771.6112   -40439.395    9540.6143    8776.3151    2848.8468    16996.681    5196.4034   -4362.9571     5022.428    19.212469    19.212469    19.212469            0            0            0    2.1102562 
 2700000    2953.1162   -40633.075    3948.6575    4687.3617    6531.8491    626.76175    8306.5263   -5421.2579   -3425.9631    19.327904    19.327904    19.327904            0            0            0    2.0726714 
 2800000    2664.9579   -40929.209   -2399.8702    3865.1305   -6746.6251   -4318.1159    12476.615    554.31499   -5205.5321     19.15743     19.15743     19.15743            0            0            0    2.1284967 
 2900000    2576.8857   -40593.821    5306.6149    4529.7552    5202.4864    6187.6031   -2915.1157    3686.7125    740.40519    19.133107    19.133107    19.133107            0            0            0    2.1366244 
 3000000    2728.3116   -40695.792    8765.6168     15184.91    13210.348   -2098.4076    2030.6215   -510.09413     2428.619    19.308923    19.308923    19.308923            0            0            0    2.0787896 
 3100000    2630.1534   -40472.396   -9692.2043   -789.69964   -10265.984   -18020.929   -2508.1114    8165.3562   -6996.3645    19.339718    19.339718    19.339718            0            0            0    2.0688751 
 3200000    2644.6872   -41087.775   -11338.702     -14558.7   -5947.8151   -13509.592   -6362.8604    2009.1613   -4431.2395    19.471142    19.471142    19.471142            0            0            0    2.0272645 
 3300000    2497.6298   -41021.811   -8564.9335   -2482.5794   -12195.253   -11016.969   -400.51435     8170.099    1902.2487    19.309993    19.309993    19.309993            0            0            0    2.0784442 
 3400000    2673.1667   -40629.991    10583.089    10531.702    5205.7214    16011.845   -8011.6857   -15610.166   -230.34282    18.962855    18.962855    18.962855            0            0            0    2.1946919 
 3500000    2541.8289   -40714.202    18979.941    26855.424     13397.55     16686.85     3759.332    4198.3614   -4969.4723    19.267632    19.267632    19.267632            0            0            0    2.0921832 
 3600000    2692.7601   -41299.694   -3303.1993   -2419.7182   -11698.836    4208.9566   -1009.9442    -1387.172    1687.0539    19.056873    19.056873    19.056873            0            0            0     2.162369 
 3700000    2504.2197   -40945.546     437.3148   -3183.8537   -9725.9731    14221.771   -1434.8061   -8406.0275   -3831.5801    19.277099    19.277099    19.277099            0            0            0    2.0891022 
 3800000    2592.7948   -40855.337   -13825.548   -15104.995    -13638.13   -12733.518    1428.7673   -6282.8324   -4284.2227    19.127704    19.127704    19.127704            0            0            0    2.1384357 
 3900000    2454.5607   -41057.771   -4222.3444   -6444.5086    8014.4936   -14237.018    9878.7073    1032.1245   -2133.4419    18.999991    18.999991    18.999991            0            0            0     2.181848 
 4000000    2616.2985    -40901.85    2708.8718     1857.396   -6029.6157    12298.835   -3643.1186    14.829689   -3733.8581    19.316504    19.316504    19.316504            0            0            0    2.0763432 
 4100000    2432.5231   -41259.973   -3865.1908    3609.8548   -9998.9889   -5206.4382   -697.09641   -114.22073   -11570.872    19.042467    19.042467    19.042467            0            0            0    2.1672803 
 4200000    2592.8755   -41093.929    7420.8903    9743.5728    13290.613   -771.51482    1106.5395    2432.8032   -1643.0655    19.199103    19.199103    19.199103            0            0            0    2.1146664 
 4300000    2638.0816   -41162.585    3180.1186     692.3392    4397.2459    4450.7708    6108.0995    483.63294   -8910.2563    19.182439    19.182439    19.182439            0            0            0    2.1201823 
 4400000    2507.0766    -41191.43    3206.5556    200.96228   -3660.4693    13079.174    -10260.87   -8416.3922    5223.0054    18.948696    18.948696    18.948696            0            0            0    2.1996154 
 4500000     2536.914   -41098.483   -5386.9979   -4157.8433    7154.5413   -19157.692   -243.30033    4851.6707    248.93654    18.908385    18.908385    18.908385            0            0            0    2.2137134 
 4600000     2565.914   -41357.406     4928.218    10343.325    4861.1545   -419.82546    5047.3695    -603.5276     2319.253    19.329507    19.329507    19.329507            0            0            0    2.0721556 
 4700000    2577.8968   -41205.805    16787.847    17889.819    16396.293    16077.427    6530.9739    11509.817    5728.3945    19.112244    19.112244    19.112244            0            0            0    2.1436292 
 4800000    2474.1898   -41483.304    4933.8733    19786.438    1723.0205   -6707.8384     3098.913   -1847.5197   -4245.9592    19.102662    19.102662    19.102662            0            0            0    2.1468566 
 4900000    2539.4202   -41537.669   -8233.7491   -8135.8975   -13074.922   -3490.4276   -9872.8811   -5160.4833    3779.2385    19.307651    19.307651    19.307651            0            0            0    2.0792004 
 5000000    2580.6378   -41372.373    14271.119    15443.565    21942.498    5427.2937     1429.955    1410.1532    592.60889    19.166516    19.166516    19.166516            0            0            0    2.1254711 
 5100000    2376.5838   -41512.394   -3336.1622    -3406.539   -4086.0078   -2515.9399   -8600.7876     5966.629   -2280.2708    19.100736    19.100736    19.100736            0            0            0     2.147506 
 5200000    2321.0023   -41438.038    6742.2647    9408.8399    11417.703   -599.74875   -847.75056     885.8268   -5817.9623    19.043109    19.043109    19.043109            0            0            0     2.167061 
 5300000    2554.5245   -41783.891    12473.444    18616.574    13288.452    5515.3045   -2410.1806    5861.6746   -1191.7738    19.290006    19.290006    19.290006            0            0            0    2.0849113 
 5400000    2438.4502   -41592.383   -336.74479   -14181.887    11192.891    1978.7618    1631.3603    1475.9525   -4170.7483     19.15716     19.15716     19.15716            0            0            0    2.1285866 
 5500000    2467.6527   -41157.763    3015.6761     2813.333    6305.2521   -71.556785   -15151.022    5316.0436    5100.3539    19.226378    19.226378    19.226378            0            0            0    2.1056796 
 5600000    2451.4315   -41431.602    3764.0898    2362.2141   -2461.5034    11391.559    6661.1456    3136.9282    3512.0876     19.02284     19.02284     19.02284            0            0            0    2.1739956 
 5700000    2474.1978   -41540.606    8291.4724    5282.5223    17400.207    2191.6881   -4524.6045    2867.0065   -1052.3244    19.448808    19.448808    19.448808            0            0            0    2.0342565 
 5800000    2385.2437   -41484.803   -5530.8817   -10754.669    873.57044   -6711.5469   -3797.2877    5122.7806   -1494.8426    19.149991    19.149991    19.149991            0            0            0     2.130978 
 5900000    2445.4788   -41952.672   -10351.981   -7182.5467   -15562.086   -8311.3089    5164.3407    1279.9429    334.81449    19.214708    19.214708    19.214708            0            0            0    2.1095185 
 6000000    2439.2753   -41622.131   -420.53948   -13420.616    11086.805    1072.1921   -8171.8875    221.73839    -6562.084    19.340409    19.340409    19.340409            0            0            0    2.0686536 
 6100000    2483.8962   -41936.107   -7602.1422    6178.0674   -14967.756   -14016.738    1642.3988    8379.7863    5413.8349    19.032421    19.032421    19.032421            0            0            0     2.170714 
 6200000    2185.9599   -41480.202   -7679.4663   -11259.245   -5859.6047   -5919.5486    10823.542    7592.6739    11480.647    19.115376    19.115376    19.115376            0            0            0    2.1425755 
 6300000    2405.1435   -41935.546   -5780.1977   -8260.7395   -5619.8325    -3460.021   -8.6819927    10164.472    11049.722    19.319349    19.319349    19.319349            0            0            0    2.0754259 
 6400000    2453.9059   -41667.222   -3944.9209   -2837.8512   -12164.107     3167.195    2084.3083   -2582.3314   -1854.9802     19.29731     19.29731     19.29731            0            0            0    2.0825451 
 6500000    2250.6603   -41672.949    3666.4478   -4755.2807    12832.629    2921.9952    7688.6446   -3843.7829    4419.3834    19.010072    19.010072    19.010072            0            0            0     2.178379 
 6600000    2333.0077   -41529.972    -8212.347    3515.2649   -16088.472   -12063.834    9345.3275    -4550.311   -5897.9444    19.317901    19.317901    19.317901            0            0            0    2.0758927 
 6700000    2225.8003   -42354.662    9046.8205    1387.1253    13604.043    12149.293   -1932.7188     1372.531    5815.6107    18.963806    18.963806    18.963806            0            0            0    2.1943616 
 6800000    2344.6473    -42220.99    5694.8324   -3434.4395    7522.3396    12996.597     4977.151   -6288.7901     2487.069    19.018278    19.018278    19.018278            0            0            0    2.1755602 
 6900000    2323.6658   -42437.966    4758.5436   -412.19431    3263.1496    11424.676   -16996.285    1808.3042   -585.69251    18.880505    18.880505    18.880505            0            0            0    2.2235347 
 7000000      2407.31   -41903.746   -4335.0275   -8686.5276    2358.3817   -6676.9365    1169.9353     1520.868   -3163.3139    19.201094    19.201094    19.201094            0            0            0    2.1140086 
 7100000    2395.8122   -42488.008    9662.8709    13247.958    11857.477    3883.1775   -6652.1619    -11557.08    2879.8326    18.933362    18.933362    18.933362            0            0            0    2.2049641 
 7200000    2230.7793   -41936.967    1948.1345   -3649.9223    4387.0308     5107.295   -5198.8622   -8659.7294   -4050.4846    19.168939    19.168939    19.168939            0            0            0    2.1246651 
 7300000    2385.3708   -42316.541    2005.2817   -3920.1445    7118.0387    2817.9509    -4634.719    7842.5848    7844.1097    19.202738    19.202738    19.202738            0            0            0    2.1134658 
 7400000     2156.025   -42534.046   -49.630021    6144.7351    1447.1914   -7740.8165   -7247.2572    2346.9368   -1379.6998    18.937312    18.937312    18.937312            0            0            0    2.2035843 
 7500000    2309.3601   -42228.469   -3392.6462    2599.9833   -5336.7157    -7441.206   -834.66937    920.61281   -3409.3392    19.295309    19.295309    19.295309            0            0            0    2.0831929 
 7600000    2217.2179   -42047.423   -5127.8895    -10428.14    8625.8465   -13581.375    1009.7265   -3472.9527    5160.5993     19.32947     19.32947     19.32947            0            0            0    2.0721674 
 7700000    2139.5119   -42403.911    1324.4384     5208.749   -1158.5215   -76.912221   -1320.9118   -3097.0508   -5280.0985    19.189609    19.189609    19.189609            0            0            0    2.1178069 
 7800000    2257.9513   -42184.962   -1657.4156   -11437.397    3620.1536    2844.9962    9360.7129   -87.268925    5702.9664    19.004636    19.004636    19.004636            0            0            0    2.1802488 
 7900000    2221.7333   -42537.831    14117.825    9716.0895    15978.962    16658.424   -5127.1277    -739.9682    4929.5334    18.735447    18.735447    18.735447            0            0            0    2.2755823 
 8000000    2119.5108    -42305.93     6504.974    21001.696   -3064.3969    1577.6227   -1085.5071    -1452.848    441.47149    18.996307    18.996307    18.996307            0            0            0    2.1831176 
 8100000    2231.6324    -42424.89    -6630.237   -9192.4741   -4129.3796   -6568.8574    7399.7175    3558.7314   -11736.736    19.029279    19.029279    19.029279            0            0            0    2.1717892 
 8200000    2203.9787   -42615.439    2394.8118    12253.249    -195.6008   -4873.2127   -4463.9045    4249.7964   -3303.8586    19.214624    19.214624    19.214624            0            0            0    2.1095461 
 8300000    2210.8046   -42412.372   -5783.8471   -14594.151   -2734.8411   -22.549036   -2021.9664    1337.9195    1831.7376    19.041874    19.041874    19.041874            0            0            0    2.1674828 
 8400000    2116.2358   -42771.568     999.7278    12020.354   -9096.7459    75.575143    969.93325    4361.2604   -9549.0341    19.179815    19.179815    19.179815            0            0            0    2.1210528 
 8500000    1947.7894   -42378.513    2558.4431    4018.0617   -2499.2758    6156.5433   -9058.5342    795.02854   -8523.1113    18.872582    18.872582    18.872582            0            0            0    2.2263362 
 8600000    2036.1085    -42409.03    3844.9959    12540.152    -6184.844      5179.68   -4995.2401      -2865.4   -2780.6997    18.982366    18.982366    18.982366            0            0            0    2.1879312 
 8700000    2086.0298   -42788.374   -6650.0212    -12611.08   -4172.4804   -3166.5027   -136.64738   -7796.9874     2028.526    19.068252    19.068252    19.068252            0            0            0    2.1585001 
 8800000     2165.188   -42719.587    4210.9878    1981.2452    9508.5739    1143.1442    1544.8012    1318.0251    2646.1071    18.659897    18.659897    18.659897            0            0            0    2.3033342 
 8900000    2331.3465   -42788.289     4879.064    2083.7813   -3709.5315    16262.942    3796.2251     -4622.53    4716.7251    18.882097    18.882097    18.882097            0            0            0    2.2229722 
 9000000      2259.28   -42562.923   -4525.0755   -7075.1086    4267.7799   -10767.898   -5688.4949   -5146.6392    3019.0752    19.287912    19.287912    19.287912            0            0            0    2.0855906 
 9100000    2146.6164   -42376.391   -4591.5493   -7847.4318    1560.1016   -7487.3178   -3017.6062    7168.4826    -4436.751    18.996233    18.996233    18.996233            0            0            0    2.1831432 
 9200000    2047.8737   -43216.628   -8529.2219   -15745.031   -15568.144     5725.509    2912.1305    6319.4569   -4481.4802    19.038836    19.038836    19.038836            0            0            0    2.1685204 
 9300000    2083.9466   -42779.247   -5644.9007   -15635.222   -4682.9676    3383.4878   -8854.9507   -1256.1904   -11983.748     18.88688     18.88688     18.88688            0            0            0    2.2212837 
 9400000    2076.6954   -43187.906    8133.6761    2702.3819    4931.7739    16766.872    2504.8503    7784.2021   -10146.574    19.023761    19.023761    19.023761            0            0            0    2.1736799 
 9500000    2007.7617   -42740.792    1581.4456   -10484.257    2040.1892    13188.405    8988.7634   -7092.8947   -2979.3079    18.901331    18.901331    18.901331            0            0            0    2.2161927 
 9600000    2064.9374   -42845.707    -18157.96   -15913.263   -13275.152   -25285.465    5670.7794    -2974.981    2405.6939    19.105814    19.105814    19.105814            0            0            0    2.1457943 
 9700000    2095.7552   -42659.687   -9360.8042   -12937.558   -2147.9698   -12996.885   -1064.8462   -498.79132   -977.24244    18.852844    18.852844    18.852844            0            0            0    2.2333362 
 9800000    1961.5941   -42898.209    848.26652    4395.8752   -7561.7799    5710.7043   -1232.7253   -2303.0109    2676.6515    19.024783    19.024783    19.024783            0            0            0    2.1733293 
 9900000    2112.1675    -42991.43   -6223.5284   -4002.0859   -13284.276   -1384.2234    2875.3965    3097.4954   -8158.7951    18.953436    18.953436    18.953436            0            0            0    2.1979655 
10000000    2099.4243   -42828.306   -3567.7033    4123.8737   -2291.6746   -12535.309   -2202.7579    4235.0066    2219.9182    18.989349    18.989349    18.989349            0            0            0    2.1855184 
10100000    1966.4026   -43117.582     19474.41    26911.794    16720.398    14791.039     3573.193    -4255.587   -5861.1189     18.91957     18.91957     18.91957            0            0            0    2.2097895 
10200000      2003.76   -43220.025   -811.69899    6124.7298   -5762.2726   -2797.5541    7593.1991   -880.29231    6176.2711     19.06955     19.06955     19.06955            0            0            0    2.1580591 
10300000    1887.0475   -43098.665    456.63509    6492.5113   -9618.8196    4496.2136    3797.1841   -3696.7526    3625.8216    19.025618    19.025618    19.025618            0            0            0    2.1730432 
10400000    1950.5565   -43140.986    619.28289    -5622.091     668.3729    6811.5668   -1785.6948   -6715.1354    7410.8438    19.046404    19.046404    19.046404            0            0            0    2.1659365 
10500000     1900.114   -43155.904    5054.6083    7838.8834   -4331.6198    11656.561     2558.796   -8708.1271    10513.928     18.83826     18.83826     18.83826            0            0            0    2.2385271 
10600000    2089.7324   -43151.958    -1137.891    3658.1042    966.15458   -8037.9319    134.14142    3045.9984   -8402.8003    19.018266    19.018266    19.018266            0            0            0    2.1755646 
10700000    1910.3712   -43193.528   -1156.1854    5288.3633   -12619.489    3862.5692    1254.2497   -137.94428   -70.371284    18.880654    18.880654    18.880654            0            0            0     2.223482 
10800000    1847.3413   -43172.786   -3722.9761    202.83179   -5324.6353   -6047.1247    223.70383    11113.146    2584.5555    18.922093    18.922093    18.922093            0            0            0    2.2089056 
10900000    1989.2357   -43075.709     7136.845    4669.9482    13742.573    2998.0137    3545.8495    602.72158   -2035.5247    18.887021    18.887021    18.887021            0            0            0    2.2212342 
11000000    1981.5012   -43246.488    2019.6262   -1114.3864    5130.8027    2042.4622   -2601.9096   -5289.9685   -4782.2363    18.958916    18.958916    18.958916            0            0            0      2.19606 
11100000     1874.255    -43383.15   -4803.2462   -7629.8358   -10424.371    3644.4678    2872.2712    2944.0973    3354.7598    19.234304    19.234304    19.234304            0            0            0    2.1030775 
11200000    1875.5009   -43323.304    4415.5927    11652.566    -1663.238    3257.4498   -338.33886     1110.627    -2321.841    19.340237    19.340237    19.340237            0            0            0    2.0687086 
11300000    1925.5316   -43234.411   -9383.1938   -9224.3572   -11361.325   -7563.8993   -6583.4233   -412.29885    6806.1675    19.176877    19.176877    19.176877            0            0            0    2.1220279 
11400000    1949.3931   -43240.094   -9897.2741   -8476.4288   -8482.0935     -12733.3     4791.706    713.32725    2992.2509    19.092813    19.092813    19.092813            0            0            0    2.1501805 
11500000    1906.5515   -43405.733   -12602.595   -14130.209   -7768.4746     -15909.1    2718.8908    3927.0841   -4152.8079    19.118117    19.118117    19.118117            0            0            0    2.1416542 
11600000    1878.4265    -43530.19    2544.2701     6443.498    -24.11979     1213.432   -104.78637    169.17899   -5800.0872    18.831316    18.831316    18.831316            0            0            0    2.2410042 
11700000    1943.9235   -43333.226    44.107653    9426.2577   -2035.8104   -7258.1244   -5912.9936   -9041.4428    3300.5633    18.906684    18.906684    18.906684            0            0            0    2.2143111 
11800000    1813.9248   -43454.677   -12433.779    -15426.51   -9208.6681   -12666.158   -1119.1818   -1231.5799   -3502.9036    19.070105    19.070105    19.070105            0            0            0     2.157871 
11900000    1739.7783   -43544.142    3865.3868   -1942.3257    6470.6273    7067.8587    3033.7466    11294.633   -3158.9281    18.731295    18.731295    18.731295            0            0            0    2.2770957 
12000000    1729.9103   -43469.441   -6847.1863   -9715.6911   -7430.1778   -3395.6901    2185.8231    2109.7956    2326.5264    18.864838    18.864838    18.864838            0            0            0    2.2290792 
12100000     1778.239   -43726.322    5045.4492    8357.1295    13187.468   -6408.2495   -1555.7532    1691.9518   -6184.2887    18.675634    18.675634    18.675634            0            0            0    2.2975166 
12200000    1919.3059   -43490.535   -8052.4252   -5842.4998   -8923.2297   -9391.5462   -9615.6234    8371.3999   -5468.9225    19.045012    19.045012    19.045012            0            0            0    2.1664115 
12300000    1656.3875   -43774.668    5416.0262    4994.5976    1392.9524    9860.5285    4165.3589    3158.0661    3305.8094    18.898794    18.898794    18.898794            0            0            0    2.2170854 
12400000    1678.3418   -43780.027   -9423.4601   -9751.9644   -8881.2396   -9637.1763   -4251.4562    1437.9011     926.8497    19.024372    19.024372    19.024372            0            0            0    2.1734703 
12500000    1680.7882   -43688.838     2082.262   -6028.5382    8798.2601    3477.0642   -2866.0697     604.2296   -2036.6519    19.030055    19.030055    19.030055            0            0            0    2.1715236 
12600000    1549.3432   -43941.133   -58.700382   -4676.6004   -3879.6485    8380.1478   -5998.3794    16868.189   -4710.7275     18.77513     18.77513     18.77513            0            0            0    2.2611835 
12700000    1699.6067   -43800.186    3880.8248     17756.52   -14056.368     7942.322    4220.3917     4305.929    3489.0707    18.768013    18.768013    18.768013            0            0            0     2.263757 
12800000    1764.2897   -43768.439   -1813.0082    19.452756   -4780.2981   -678.17934    5214.7357    2241.9592    1691.1401    18.802898    18.802898    18.802898            0            0            0    2.2511805 
12900000    1716.7762   -43834.006    928.42272    17520.305   -4744.8419   -9990.1952   -4154.3805    3268.3909    10283.601     18.92033     18.92033     18.92033            0            0            0    2.2095232 
13000000    1689.1714   -43787.652    -8263.991   -5622.6821   -16692.472   -2476.8189    -13911.19    2276.5068   -7302.2961    19.007361    19.007361    19.007361            0            0            0     2.179311 
13100000     1762.461   -43958.678    14419.323    3730.1787    26474.739    13053.051   -10195.304   -2763.1213    3572.3629    18.770187    18.770187    18.770187            0            0            0    2.2629704 
13200000    1692.5297   -44054.858    5706.5274   -5308.1726    14853.597    7574.1573    4910.4724    4320.5473    4192.3641    18.815651    18.815651    18.815651            0            0            0    2.2466064 
13300000    1633.7137   -44095.317    3259.3201   -1978.1058    16188.279   -4432.2132    2702.8136     8441.123    4066.1605    18.761405    18.761405    18.761405            0            0            0    2.2661498 
13400000    1624.0939    -44043.35    584.00281   -699.50998    2003.6188    447.89964   -1039.3516    -4444.691    122.72156    18.810805    18.810805    18.810805            0            0            0    2.2483431 
13500000    1637.7072   -44159.033   -1947.3192   -8923.8197    1333.5982    1748.2637    3794.4453   -2221.7794    -79.38733    18.829087    18.829087    18.829087            0            0            0    2.2418002 
13600000    1635.2696   -43903.168   -1409.9399    4883.5396   -5559.4233   -3553.9361   -2511.1587   -5131.2546    938.54547    18.827926    18.827926    18.827926            0            0            0    2.2422151 
13700000    1659.7176   -43865.157     1945.642   -46.625442    7662.9265    -1779.375   -2591.8151     5785.121   -7511.2144    18.701426    18.701426    18.701426            0            0            0    2.2880239 
13800000    1580.7565   -43978.655    4615.0389    3617.8608    9066.7041    1160.5519    5025.5733   -1882.8216    1401.8071    18.711365    18.711365    18.711365            0            0            0    2.2843797 
13900000    1536.2391   -44172.353   -3750.6391   -6281.0865   -5362.9845    392.15352    5925.9807    3397.1865    12861.483    18.785533    18.785533    18.785533            0            0            0    2.2574293 
14000000    1602.0014   -44248.135   -1042.2412   -12251.789    875.21945    8249.8463   -5348.5133    7819.8096    1979.2773    18.760411    18.760411    18.760411            0            0            0    2.2665101 
14100000    1621.1341   -44254.413    3274.8208    769.41255   -6147.1718    15202.222     2463.483     8949.539   -1788.2698    18.811765    18.811765    18.811765            0            0            0    2.2479988 
14200000    1670.0967   -44042.376    2858.1052    589.48398   -2059.0935    10043.925   -3634.2593    4062.7784    2289.9946    18.778376    18.778376    18.778376            0            0            0    2.2600114 
14300000    1652.3594    -44150.52    1094.0318   -3347.3973    2249.2214    4380.2714   -6444.2789    -198.2357   -2002.7875    18.741769    18.741769    18.741769            0            0            0    2.2732803 
14400000    1610.4827   -43991.274    3522.2289    6022.7394    1983.8494    2560.0979   -1249.6816    4658.5876    4576.6368    18.652859    18.652859    18.652859            0            0            0    2.3059424 
14500000    1681.2161   -44171.221    9779.8102    8661.4443    9465.8397    11212.147    5055.8369   -4066.3559    4597.3901    18.695715    18.695715    18.695715            0            0            0    2.2901211 
14600000    1456.9663   -44117.141    570.02055    -8979.993   -4793.6946    15483.749    1452.9539    -3446.181   -3775.9893    18.741181    18.741181    18.741181            0            0            0    2.2734941 
14700000    1455.5079   -44086.422    4543.7951    6901.5699    7541.8463   -812.03078    615.50474   -827.78325    125.37593    18.819436    18.819436    18.819436            0            0            0    2.2452508 
14800000    1446.9773   -44068.724     683.6698   -6300.6279    6947.6306    1404.0067    8224.6653    1439.1193    1918.5085    18.771345    18.771345    18.771345            0            0            0    2.2625519 
14900000     1538.165   -44390.864   -2649.5775     324.3985   -3314.0667   -4959.0644    7967.4055    9287.9927    1861.1341    18.919103    18.919103    18.919103            0            0            0     2.209953 
15000000    1520.3087   -44157.179   -3901.4888   -1305.5179   -2075.2222   -8323.7263    8823.1126   -987.01523   -4104.7356    18.884171    18.884171    18.884171            0            0            0    2.2222398 
15100000    1484.8233   -44232.678   -4731.8459   -452.62031   -5449.3035   -8293.6138    7432.8498    -2266.506   -1071.5335    18.908899    18.908899    18.908899            0            0            0     2.213533 
15200000    1537.7911   -44204.348   -600.70534   -9605.9095    1711.2185    6092.5749   -2207.0066     16550.24    1531.3517    18.893425    18.893425    18.893425            0            0            0    2.2189759 
15300000     1534.415   -44379.618    2933.8318   -7399.9272    9349.7407    6851.6819    3147.3865    6175.1076    1317.7895    18.866178    18.866178    18.866178            0            0            0    2.2286039 
15400000    1429.8846    -44366.21   -7453.0618   -6734.7906   -13560.977   -2063.4177   -2150.0292    7752.8905    5990.3241     18.88268     18.88268     18.88268            0            0            0    2.2227663 
15500000    1474.2372   -44240.318   -4464.7293    -2183.394   -13717.549    2506.7552    2517.9236    8823.7584    3186.5621    18.896426    18.896426    18.896426            0            0            0    2.2179191 
15600000    1443.3668   -44435.784   -12157.522   -19460.136   -11441.872   -5570.5587    11730.943    3323.3939    1957.8247    18.933937    18.933937    18.933937            0            0            0    2.2047629 
15700000    1424.6855   -44610.478   -2678.3736   -8564.8877   -2409.7381    2939.5051   -1081.2468    5700.8699    1554.6484    18.805752    18.805752    18.805752            0            0            0    2.2501558 
15800000    1497.8214   -44316.877    13498.796    23996.482    4530.4601    11969.445    5652.4361    7327.3789   -1277.4599     18.81435     18.81435     18.81435            0            0            0    2.2470723 
15900000    1318.0361    -44416.39    -6975.245   -16249.105   -5475.2621     798.6325    2900.4374    7030.9617     7485.706    18.900239    18.900239    18.900239            0            0            0    2.2165768 
16000000    1406.0345   -44482.804   -545.29562   -8878.9405    10616.803    -3373.749    2355.2598   -1031.4398    218.34747    18.891735    18.891735    18.891735            0            0            0    2.2195717 
16100000    1422.0716   -44304.629   -1147.1987   -1523.3723   -1021.5501   -896.67382   -176.39549     1645.389    6745.7161    18.878356    18.878356    18.878356            0            0            0    2.2242939 
16200000    1380.2432   -44377.957   -3136.9317    4654.9735   -10013.259   -4052.5093    3093.2066    5891.5935   -72.220145    18.821673    18.821673    18.821673            0            0            0    2.2444503 
16300000    1284.1547   -44468.694   -1468.5542   -2149.0623   -95.239441   -2161.3608    2199.1039    7142.0462    1696.5547    18.822822    18.822822    18.822822            0            0            0    2.2440393 
16400000    1357.2907   -44451.708   -8275.5858   -7734.0175    -6240.876   -10851.864    -3144.152    1330.0678   -6535.1705    18.866017    18.866017    18.866017            0            0            0    2.2286612 
16500000    1413.2445   -44411.474    3754.6385    3787.6694    2912.8729    4563.3731    -1894.447    -165.7142   -3884.1645    18.821452    18.821452    18.821452            0            0            0    2.2445296 
16600000    1332.2375   -44444.211   -4626.2359   -6489.5306   -5529.0018   -1860.1753    551.57816   -6174.0959    1562.8841    18.841078    18.841078    18.841078            0            0            0    2.2375228 
16700000    1303.4545   -44560.089   -821.81918   -12602.895    6659.8172    3477.6205    7624.0731   -5531.9971    5412.3346    18.863793    18.863793    18.863793            0            0            0    2.2294496 
16800000    1321.2217   -44436.402    1909.4048    4842.5898    -636.3697    1521.9944    425.74066    3960.9397   -432.19541    18.848803    18.848803    18.848803            0            0            0    2.2347728 
16900000     1319.795   -44609.931   -7385.4034   -15988.678    -1524.454   -4643.0785    12761.392    3423.7158    3144.6639    18.953221    18.953221    18.953221            0            0            0      2.19804 
17000000    1335.4515   -44575.002   -2975.3846   -2431.3504   -6971.3306     476.5273    6314.0123    2198.1026   -4135.2136    18.771199    18.771199    18.771199            0            0            0    2.2626044 
17100000     1290.086    -44518.13    11373.714    12251.728    19186.281    2683.1317    3232.0097    5478.6745   -4057.2967    18.816143    18.816143    18.816143            0            0            0    2.2464299 
17200000    1292.2335   -44594.703   -2051.8682   -5564.3799   -295.68503   -295.53965    1488.3626    3912.0717    4661.2512    18.852707    18.852707    18.852707            0            0            0    2.2333847 
17300000    1371.3988   -44548.094   -5269.8557   -11641.969   -7981.2134    3813.6149    -951.2866    822.53694     2621.418    18.837803    18.837803    18.837803            0            0            0    2.2386899 
17400000    1250.7131   -44544.214     -14632.4   -12936.167   -18596.941   -12364.093    7431.8075   -7482.1526   -5389.8111    18.931032    18.931032    18.931032            0            0            0    2.2057781 
17500000    1242.7668   -44567.915    3492.4507    2776.3617    5275.0896    2425.9007    3567.6109    1170.5889    1472.6851    18.792118    18.792118    18.792118            0            0            0    2.2550569 
17600000    1247.6533   -44587.109   -3073.5356   -12856.871    1459.2054    2177.0585    3064.3164   -1719.1504    -3378.898    18.794118    18.794118    18.794118            0            0            0     2.254337 
17700000    1169.9606   -44792.108    -9514.825   -5425.6086   -17442.805   -5676.0613    692.96487   -3114.4865   -498.85626    18.795158    18.795158    18.795158            0            0            0    2.2539628 
17800000    1196.2291   -44796.473   -1354.6162    831.22691   -6005.8597    1110.7842     13570.99   -2043.1663   -2790.4633      18.8264      18.8264      18.8264            0            0            0    2.2427603 
17900000    1208.5487    -44699.31   -6373.2448   -9320.9662   -6405.5123   -3393.2559    6999.0373    1398.5962    5228.1294    18.883733    18.883733    18.883733            0            0            0    2.2223946 
18000000    1176.2868   -44783.426    4938.2286    7889.6933    5151.9595    1773.0329   -338.40613    2195.7287    2151.9999    18.821726    18.821726    18.821726            0            0            0    2.2444315 
18100000    1160.2822   -44760.515   -1421.1529    136.67509   -579.19653   -3820.9373    2586.3751    5310.6202    3824.1171    18.788786    18.788786    18.788786            0            0            0    2.2562567 
18200000    1138.5117   -44881.102    -2655.706    2339.1321   -2713.5289   -7592.7211    3707.4739    1575.9433    958.09632    18.796191    18.796191    18.796191            0            0            0    2.2535914 
18300000    1188.0894   -44745.165   -2757.2853   -3722.6779    1955.7795   -6504.9576    4934.0934    2425.4837     4579.393    18.826603    18.826603    18.826603            0            0            0    2.2426877 
18400000    1152.7266   -44782.194    6076.2938    6512.5379    5672.0368    6044.3068    7929.6768   -1351.7889   -2199.1589    18.829455    18.829455    18.829455            0            0            0    2.2416688 
18500000    1124.4598   -44811.273    -1783.659   -2602.1138    786.91253   -3535.7756    804.39126    1099.0813    2911.8768    18.819571    18.819571    18.819571            0            0            0    2.2452026 
18600000    1095.3334   -44758.754    744.07204    -1449.773    2516.8647    1165.1245    3096.6173    4173.0018    -6533.425    18.878424    18.878424    18.878424            0            0            0      2.22427 
18700000    1169.7507   -44811.949    4477.6834    70.145339    9559.9059     3802.999    4458.5519    4274.0844   -1717.3453    18.868103    18.868103    18.868103            0            0            0    2.2279219 
18800000    1099.9624   -44962.423     5514.492    4069.7845    10478.625    1995.0666   -947.10886    4228.9852    630.95983     18.77762     18.77762     18.77762            0            0            0    2.2602844 
18900000    1076.0246   -44965.666   -371.93649    5173.8137   -3380.3513   -2909.2718    6233.3193    1253.6387   -4041.0766    18.859525    18.859525    18.859525            0            0            0    2.2309634 
19000000    1093.7568   -44970.384    95.792346    813.76925    2060.0732   -2586.4654    1764.0685   -5284.9456    6164.2078    18.789155    18.789155    18.789155            0            0            0    2.2561238 
19100000    1081.6865    -44830.52   -8949.3151   -11774.564   -7304.8231   -7768.5579    12343.248    1025.6043    5089.9933     18.87326     18.87326     18.87326            0            0            0    2.2260961 
19200000    1069.5239   -44896.479    3505.7514    2295.8027     11400.19    -3178.739     5397.685    1101.1564    7893.5473    18.834577    18.834577    18.834577            0            0            0    2.2398406 
19300000    1092.1208   -44977.645    3220.5315   -1076.7375    10365.833    372.49883    1315.1737     3416.256   -740.83827    18.764693    18.764693    18.764693            0            0            0     2.264959 
19400000    1061.8531   -44903.489   -2340.9677   -5633.4904   -2834.4377    1445.0251    585.52369   -262.90403   -671.40048    18.884356    18.884356    18.884356            0            0            0    2.2221744 
19500000    1048.1657   -44896.451   -401.91413     3232.441   -2276.2156   -2161.9678    1446.1198    322.66091    5624.5682    18.850296    18.850296    18.850296            0            0            0    2.2342417 
19600000    1066.9907   -44927.811   -3844.8528   -2462.2994   -3385.2041   -5687.0548    3351.7626    -882.1299    220.74971    18.862056    18.862056    18.862056            0            0            0    2.2300654 
19700000    948.32783   -44960.587   -6106.7271    -4795.374   -6010.0872   -7514.7199    942.47544    1571.6732    2075.1284    18.831784    18.831784    18.831784            0            0            0    2.2408373 
19800000    1042.3708   -45055.201   -6457.7374   -3069.2683   -9809.7799   -6494.1639    8881.0253    9855.4927   -1535.7742     18.86335     18.86335     18.86335            0            0            0    2.2296067 
19900000    1087.4581     -45098.2   -937.47193   -2007.7003    2979.2405    -3783.956    -3807.488    3232.7917    2308.6065     18.85897     18.85897     18.85897            0            0            0    2.2311605 
20000000    995.41806   -45033.343   -5290.9062   -8935.6186   -6733.3237   -203.77617    3830.3389    3967.4791   -1975.4339    18.843534    18.843534    18.843534            0            0            0    2.2366478 
20100000    1038.0462   -45040.404    2126.7528   -1848.2338    6576.5906    1651.9016     7635.285   -2312.5761    4832.3623    18.865908    18.865908    18.865908            0            0            0    2.2286997 
20200000    980.44731   -45002.584   -10718.353   -11079.973     -8998.22   -12076.865    11800.453    240.93476     552.2737    18.790363    18.790363    18.790363            0            0            0    2.2556889 
20300000     986.9853   -45057.649    1103.2495   -2031.9068    845.18887    4496.4664   -3540.1797    19.544702   -527.64305    18.857087    18.857087    18.857087            0            0            0    2.2318287 
20400000    980.38427     -45134.6   -243.44973    -3161.673    8336.7786   -5905.4547    8072.8562   -2252.5399    4451.2989    18.737511    18.737511    18.737511            0            0            0    2.2748304 
20500000    972.60325   -45110.834   -3140.7107   -8878.1678   -3629.5283     3085.564    9218.8244    3136.5933    2669.9931     18.80812     18.80812     18.80812            0            0            0     2.249306 
20600000    938.10238   -45167.145   -5223.1477   -4467.9846    -10894.33   -307.12891    850.53981     6335.375   -2319.7798       18.842       18.842       18.842            0            0            0    2.2371941 
20700000    893.30054   -45069.714   -5842.8957   -5341.3908    -9208.374   -2978.9222    3321.6762    2637.1744    3932.6185    18.802776    18.802776    18.802776            0            0            0    2.2512243 
20800000    985.33023   -45213.218   -716.03543    3408.9237   -1734.6221   -3822.4079    978.64042    6390.6977    1.7902485    18.770406    18.770406    18.770406            0            0            0    2.2628912 
20900000    871.80374   -45236.712    -4914.457   -7189.9384   -898.29335   -6655.1394    794.77837    2140.9934   -3454.0366    18.804708    18.804708    18.804708            0            0            0    2.2505306 
21000000    933.35491   -45275.996   -6130.2321   -9455.5945    77.149234   -9012.2509    7114.2083    292.16801   -1897.1785    18.900211    18.900211    18.900211            0            0            0    2.2165867 
21100000    879.31609   -45249.754   -5320.6473   -8897.8965    3665.1676   -10729.213    2043.5496   -4269.5986    120.85924    18.784807    18.784807    18.784807            0            0            0    2.2576908 
21200000    863.62917   -45218.387   -2200.4279    1516.0393   -6140.4651   -1976.8579    5177.2584    5506.7586     3577.807    18.765225    18.765225    18.765225            0            0            0    2.2647663 
21300000    896.84123   -45214.728     3767.554    7170.2623    1289.7001    2842.6995    3040.0232   -5506.9357     6086.555    18.796851    18.796851    18.796851            0            0            0    2.2533539 
21400000    850.84755   -45212.229   -4811.0895   -3487.5228   -4947.1187   -5998.6268    10371.786   -739.31443   -3610.4709    18.865634    18.865634    18.865634            0            0            0    2.2287969 
21500000    857.61678   -45281.639    3061.1657    4579.3527    7899.6767   -3295.5323    -1553.877   -334.73511   -4697.0763    18.768035    18.768035    18.768035            0            0            0     2.263749 
21600000    822.00368   -45269.023   -92.919192   -109.11278    4358.3817   -4528.0265    8482.9243   -6010.4794    375.79196    18.815399    18.815399    18.815399            0            0            0    2.2466965 
21700000    897.76226   -45356.835   -4014.0471   -1495.5407   -3763.4823   -6783.1183    4758.4859   -3409.1371    1910.9658     18.84065     18.84065     18.84065            0            0            0    2.2376754 
21800000    797.28835   -45285.117    5430.3142    3118.0772    304.07278    12868.793    11037.499    167.02545    2320.3824    18.842615    18.842615    18.842615            0            0            0    2.2369754 
21900000    824.56058   -45341.495   -5545.3832   -9152.5478   -4924.5032   -2559.0987    5293.7533   -738.12488    4835.5253    18.730323    18.730323    18.730323            0            0            0    2.2774503 
22000000    796.21428   -45372.625     -4917.02   -5045.9402   -4341.4434   -5363.6766    5247.3984    3836.9436   -1157.1059    18.832411    18.832411    18.832411            0            0            0    2.2406133 
22100000    804.94389   -45310.165   -3601.9108   -5759.0853    2430.7214   -7477.3686    1183.2928   -384.24229    4317.1326    18.782399    18.782399    18.782399            0            0            0    2.2585592 
22200000    823.64308   -45411.994   -6334.7875    -858.0317   -8885.5078   -9260.8231    1891.5308   -1560.4158   -1515.6806     18.84559     18.84559     18.84559            0            0            0    2.2359159 
22300000    714.80493   -45377.685   -2236.7881    -4407.213   -1963.6299   -339.52143    603.52648    776.11471   -928.42441    18.871667    18.871667    18.871667            0            0            0    2.2266601 
22400000    773.67067   -45411.976   -4249.9078   -3387.4124   -6699.8559    -2662.455    7358.7298    2447.8323    898.53289    18.801421    18.801421    18.801421            0            0            0    2.2517111 
22500000    756.43434   -45394.705    2890.1759   -1258.1653    6839.3885    3089.3045    4074.8204    8208.1179    724.32488    18.763309    18.763309    18.763309            0            0            0    2.2654601 
22600000    771.09507   -45435.229    5341.8605    5179.3508    5606.7931    5239.4374    2974.3336   -851.64749   -2043.4746    18.868284    18.868284    18.868284            0            0            0     2.227858 
22700000    744.03983   -45475.723    486.32421    340.59496   -4063.7878    5182.1655   -48.317847   -2953.4998    1824.5453    18.796691    18.796691    18.796691            0            0            0    2.2534114 
22800000    748.38478   -45456.959   -41.812822    -1741.226    2576.4909   -960.70335    4753.2549   -1512.2834   -2029.9738    18.843756    18.843756    18.843756            0            0            0     2.236569 
22900000    678.01859   -45492.467    2940.3427    31.187502    4110.5356    4679.3049    7898.1854   -1634.1498   -54.475845     18.81563     18.81563     18.81563            0            0            0    2.2466137 
23000000    669.49883   -45485.834   -886.02449   -1874.9256    196.32117   -979.46899    3650.3647     2900.644   -1557.5466    18.822033    18.822033    18.822033            0            0            0    2.2443218 
23100000    722.85894   -45442.857   -2020.5814   -6043.5303    2471.4858   -2489.6995     8841.106   -4740.9281    462.71807    18.902676    18.902676    18.902676            0            0            0    2.2157196 
23200000     713.2304   -45537.318    5239.2383    12865.091    5428.6405   -2576.0165     3214.061   -2214.6038    6659.2354    18.720787    18.720787    18.720787            0            0            0    2.2809321 
23300000    668.02458   -45476.747    3227.5912    1696.6853    3561.4838    4424.6046    1718.6921   -3798.6986    2052.8409    18.751128    18.751128    18.751128            0            0            0    2.2698778 
23400000    641.44665     -45505.6   -3065.3237   -5911.0606   -6837.7401    3552.8296    6432.7006    -2440.051     782.1009    18.806581    18.806581    18.806581            0            0            0    2.2498581 
23500000    651.71715   -45560.147   -2052.0573   -6826.0524   -153.16711    823.04748    7854.2483    894.12649    2259.6718    18.789673    18.789673    18.789673            0            0            0    2.2559372 
23600000     655.2105   -45497.939    1585.8783   -742.82504    6109.0882   -608.62831    5621.7422    3579.6377    3029.8775    18.776886    18.776886    18.776886            0            0            0    2.2605493 
23700000    562.10261   -45588.381   -10531.876    -6121.484    -12178.64   -13295.505    7056.9823    941.19909    10.265526    18.785594    18.785594    18.785594            0            0            0    2.2574072 
23800000    614.59636   -45581.665   -3115.9014   -5040.7347   -2155.6878   -2151.2817      119.007   -2165.5053   -2300.5423    18.756568    18.756568    18.756568            0            0            0    2.2679035 
23900000    636.56541   -45628.381    6947.6134    10897.235    8006.8024    1938.8033    4934.4877   -4129.6442     3183.814    18.776339    18.776339    18.776339            0            0            0    2.2607468 
24000000    605.31926   -45589.933   -539.22652   -3658.0465   -939.95666    2980.3236    2901.0467   -3148.2149    4528.9773     18.74081     18.74081     18.74081            0            0            0    2.2736291 
24100000    559.99797   -45687.432   -1249.6322   -3456.3802    1546.9996   -1839.5161     148.8022   -1023.6697    6603.9783    18.742808    18.742808    18.742808            0            0            0     2.272902 
24200000    595.31393   -45658.449    11526.121    9998.8259     12715.58    11863.956    7422.2503   -2130.4838   -578.15469    18.726849    18.726849    18.726849            0            0            0     2.278718 
24300000     537.9681   -45671.507    6108.6242     1701.279    14382.748     2241.846     7409.164   -4409.8899    2033.0573    18.776759    18.776759    18.776759            0            0            0    2.2605953 
24400000    553.95067    -45614.91   -8204.0869   -7747.3177   -3216.6551   -13648.288    9376.0266    10.130789    3113.8239    18.818577    18.818577    18.818577            0            0            0    2.2455584 
24500000    539.75866   -45664.157   -1151.9299   -992.24885   -814.28118   -1649.2597    7407.3148   -1077.6804   -364.79151    18.754652    18.754652    18.754652            0            0            0    2.2685987 
24600000    506.14995   -45641.358   -46.861368   -7306.3986    1822.1833    5343.6312    1208.3314   -2740.4848    -68.49007      18.7801      18.7801      18.7801            0            0            0     2.259389 
24700000    521.23393   -45706.261    1201.3334     3460.553    4757.3442    -4613.897    6419.6979   -3781.6796    -2041.334    18.800404    18.800404    18.800404            0            0            0    2.2520766 
24800000    542.41364   -45756.778    1720.8755   -7858.8904    11769.567    1251.9497    5477.0331   -2601.2382   -417.29635    18.743065    18.743065    18.743065            0            0            0    2.2728087 
24900000    490.89572   -45771.962   -3695.3842   -4215.3659   -3483.8407   -3386.9461    3208.7199    2867.4032   -2377.3104    18.810819    18.810819    18.810819            0            0            0    2.2483379 
25000000    504.32959   -45761.128    1387.8153    4297.5046    1461.9962   -1596.0547    7733.3208    -596.8432    1712.9921    18.773739    18.773739    18.773739            0            0            0    2.2616863 
25100000    486.81439   -45731.479    5907.4682    112.55212    10338.574    7271.2783    3375.9579   -3044.5719   -2322.5925    18.730741    18.730741    18.730741            0            0            0    2.2772976 
25200000    468.92801   -45747.144    3867.0544    5796.7919    4997.8951    806.47625    3285.4513   -1573.8741   -161.92595    18.743309    18.743309    18.743309            0            0            0    2.2727199 
25300000    474.82608   -45816.592   -4998.9598   -4781.6554   -1871.9474   -8343.2768     5264.178    287.76516    295.74282    18.804377    18.804377    18.804377            0            0            0    2.2506496 
25400000      459.478   -45788.498     1777.278   -1490.4762    8232.9664   -1410.6561    7431.5571   -1623.5966    2081.4719     18.75834     18.75834     18.75834            0            0            0     2.267261 
25500000    412.20392    -45805.65   -584.33857   -2927.1122    455.57217    718.52429    2727.2599   -1633.6954    484.24716    18.780285    18.780285    18.780285            0            0            0    2.2593221 
25600000    480.51747   -45824.035   -1306.9116   -1679.4356    -913.4969   -1327.8021    1874.3634   -3913.0381      377.408    18.769298    18.769298    18.769298            0            0            0     2.263292 
25700000    435.09336   -45882.864    1775.2457   -309.59316    7262.1324   -1626.8021    7306.2834    739.03125   -1858.8423    18.784451    18.784451    18.784451            0            0            0    2.2578193 
25800000    405.19642   -45857.175   -878.68102     3013.892   -6364.1753    714.24023    8140.9546   -2894.4498   -559.00014    18.808533    18.808533    18.808533            0            0            0    2.2491577 
25900000    424.64462    -45884.83    6647.6209    3105.0979    10516.481     6321.284     2081.395    898.50953    717.03386    18.773701    18.773701    18.773701            0            0            0       2.2617 
26000000    378.23741   -45893.191   -3628.8906   -4978.3836    541.58555   -6449.8737    5025.2409   -1323.3481    1113.4724    18.778122    18.778122    18.778122            0            0            0    2.2601031 
26100000    393.65341   -45917.982   -1020.3957   -1818.4276    869.70726   -2112.4668    7361.4508   -1981.5267   -3621.5625    18.743764    18.743764    18.743764            0            0            0    2.2725543 
26200000    364.38098     -45906.9    407.45705   -147.19013    2298.0791   -928.51782    5405.3015   -800.94674     479.7087    18.736243    18.736243    18.736243            0            0            0     2.275292 
26300000      354.605   -45917.638    5099.1013    3491.1193    1053.7134    10752.471    4282.3747   -880.57583   -345.94211     18.76461     18.76461     18.76461            0            0            0    2.2649888 
26400000    360.20342   -45951.788    510.24357   -2211.5335    1338.1605    2404.1037    5842.1247   -271.38392    1719.4063    18.787808    18.787808    18.787808            0            0            0    2.2566093 
26500000     332.9816   -45982.493    1650.6821    629.53275    2640.1495     1682.364    9713.2539    566.58349   -153.23961    18.750043    18.750043    18.750043            0            0            0    2.2702721 
26600000    343.69151   -46003.144     2460.873    4750.5023    4512.6111   -1880.4944    6017.3367   -793.22057    1275.3232    18.725129    18.725129    18.725129            0            0            0    2.2793459 
26700000    329.11551   -45960.216    730.24268   -2693.6227   -2894.1259    7778.4766    7130.2765   -179.58254   -223.16094    18.775802    18.775802    18.775802            0            0            0    2.2609411 
26800000    299.52912    -45995.85   -1448.6809   -5094.5621    2857.2738   -2108.7543    6683.9357   -623.51555    3587.5937    18.779523    18.779523    18.779523            0            0            0    2.2595971 
26900000    295.61042    -46035.01    1519.2314    4194.5413    1517.2001   -1154.0473    6949.7173    1108.6862   -1861.3823     18.74826     18.74826     18.74826            0            0            0    2.2709196 
27000000    309.57445    -46025.74   -957.42728   -2106.5664   -202.52059    -563.1948    7194.9498   -2646.0749    946.67293    18.768222    18.768222    18.768222            0            0            0    2.2636812 
27100000    274.11814   -46050.228    2245.2658    1760.0411    4366.5131    609.24311    6138.3791   -1099.7642    2211.2989    18.764127    18.764127    18.764127            0            0            0    2.2651639 
27200000    270.76328   -46066.165    985.16138   -2826.0127    4265.1519    1516.3449    6089.5919    780.18644    2275.1539    18.771543    18.771543    18.771543            0            0            0    2.2624801 
27300000    271.58389   -46066.171   -1564.5759   -1774.8121    83.135749   -3002.0513    4404.9913     237.4553    2025.8516    18.736526    18.736526    18.736526            0            0            0    2.2751889 
27400000    258.93079   -46108.042    2944.4673    5.2035199     5690.002    3138.1963    7826.3213    258.67144   -1.6793296    18.757715    18.757715    18.757715            0            0            0    2.2674876 
27500000    247.97739   -46114.399   -3139.2913   -3587.9756    -593.9807   -5235.9176    5106.6029   -1892.1067    309.47038    18.781561    18.781561    18.781561            0            0            0    2.2588618 
27600000    245.45722   -46120.235   -6576.4387   -5386.5498   -7963.0995   -6379.6669     6690.868   -2900.6848    1555.9924     18.77958     18.77958     18.77958            0            0            0    2.2595768 
27700000    226.38539   -46138.881   -4253.9634   -5865.3207   -1867.1234   -5029.4461     10404.49    1688.8845    2526.3854    18.800268    18.800268    18.800268            0            0            0    2.2521255 
27800000    214.79789    -46149.05   -2556.3129   -6302.4712   -356.28424   -1010.1832    7392.0164    523.92781    472.73835    18.762559    18.762559    18.762559            0            0            0    2.2657319 
27900000    208.38666   -46131.044   -7633.0234   -7090.7009   -8780.1974    -7028.172    4846.2664    1766.8401    128.61792    18.772958    18.772958    18.772958            0            0            0    2.2619687 
28000000    193.81285   -46158.167    2985.1967    1776.4342    5398.1476    1781.0083    8702.0605   -986.35186    2408.2528    18.728308    18.728308    18.728308            0            0            0    2.2781855 
28100000    181.76682   -46178.484   -2229.7985   -4371.2809    1946.7736   -4264.8882    4312.5623   -476.57867    1429.2428    18.782949    18.782949    18.782949            0            0            0     2.258361 
28200000    181.48669   -46174.841     543.8309   -1206.7263   -239.53205     3077.751    8839.3785   -797.04253    39.072023    18.770357    18.770357    18.770357            0            0            0    2.2629089 
28300000    161.55605   -46207.794    610.57387   -2113.3319    1406.9594    2538.0941    6347.7407    795.23449    878.28108     18.76857     18.76857     18.76857            0            0            0    2.2635555 
28400000    163.01907   -46224.929    340.34265    833.77685    2079.2219   -1891.9708    7538.4285   -441.39635    24.708561    18.767811    18.767811    18.767811            0            0            0      2.26383 
28500000    149.49007   -46229.478   -534.42559   -820.22002   -1016.4491    233.39235    5600.4286    -154.8458   -2372.4298    18.748967    18.748967    18.748967            0            0            0    2.2706631 
28600000    141.32436   -46252.023    353.73008    1106.1977   -736.22438    691.21694    5282.3081    582.29256   -211.17569    18.750497    18.750497    18.750497            0            0            0     2.270107 
28700000    128.78761   -46257.878    1285.6587     1750.434    3366.9535   -1260.4113    5262.1275    3992.9373    690.60779    18.727508    18.727508    18.727508            0            0            0    2.2784775 
28800000    123.28996   -46271.092    507.13929   -1312.3325    169.22739     2664.523    5895.7014   -2859.7781    751.97241    18.715384    18.715384    18.715384            0            0            0    2.2829083 
28900000    109.13769   -46296.916   -2022.5496   -2843.7069   -3141.3286   -82.613212    8288.2796    75.820914    427.03779    18.751971    18.751971    18.751971            0            0            0    2.2695716 
29000000    101.06272   -46304.868   -994.57715   -467.31587   -12.689388   -2503.7262    8059.3255   -53.512524    1822.1437    18.738017    18.738017    18.738017            0            0            0    2.2746459 
29100000    92.201381   -46317.513    4171.7725    2997.2051    5105.5288    4412.5837    5427.3527    455.85069    1266.8585    18.730983    18.730983    18.730983            0            0            0    2.2772097 
29200000    82.979587   -46329.588   -137.98066   -2965.7524    676.64478    1875.1657    6343.2263    1041.2052    1090.0817    18.737429    18.737429    18.737429            0            0            0    2.2748603 
29300000    64.262812   -46341.321    233.44479   -474.22159    167.26038    1007.2956    5184.5391    1235.1049    618.04725    18.736283    18.736283    18.736283            0            0            0    2.2752776 
29400000    62.919286   -46361.234    1741.2337    299.88887    3769.1391    1154.6731     5506.894    1012.0323    1275.5613    18.744835    18.744835    18.744835            0            0            0    2.2721647 
29500000    52.336467   -46369.817    1305.2315    1173.2437    265.21123    2477.2397    5263.2554   -478.79948    937.60698    18.739683    18.739683    18.739683            0            0            0    2.2740392 
29600000    41.880679    -46382.92    249.33246    484.45416    533.08999   -269.54677    6903.7931    103.34942    1706.4651    18.740459    18.740459    18.740459            0            0            0    2.2737571 
29700000    29.577267   -46396.809   -228.04006   -638.35958   -100.00398     54.24338    5473.4557    523.96595   -202.71005    18.745429    18.745429    18.745429            0            0            0    2.2719487 
29800000    19.959652   -46411.591    962.70507     -498.599    1361.3589    2025.3553    6280.2918    566.11673    626.09257    18.747077    18.747077    18.747077            0            0            0    2.2713496 
29900000    10.023288   -46423.602    518.56034   -1525.2481     1824.192    1256.7372    6040.6652   -432.35608    636.97428    18.734721    18.734721    18.734721            0            0            0    2.2758468 
30000000  0.027244575   -46437.372    40.502551   -958.98726    893.00892    187.48599    6083.3756    218.36345    1026.9802    18.741251    18.741251    18.741251            0            0            0    2.2734688 
Loop time of 3661.45 on 24 procs for 30000000 steps with 450 atoms

Performance: 707.916 ns/day, 0.034 hours/ns, 8193.468 timesteps/s
99.0% CPU use with 24 MPI tasks x 1 OpenMP threads

MPI task timing breakdown:
Section |  min time  |  avg time  |  max time  |%varavg| %total
---------------------------------------------------------------
Pair    | 666.65     | 830.64     | 985.33     | 286.0 | 22.69
Neigh   | 42.604     | 47.312     | 52.36      |  39.7 |  1.29
Comm    | 1924       | 2077.4     | 2221       | 174.8 | 56.74
Output  | 0.061989   | 0.062212   | 0.065467   |   0.3 |  0.00
Modify  | 575.42     | 597.99     | 621.96     |  59.3 | 16.33
Other   |            | 108.1      |            |       |  2.95

Nlocal:        18.7500 ave          24 max          14 min
Histogram: 1 2 2 2 4 3 5 2 1 2
Nghost:        1279.58 ave        1312 max        1251 min
Histogram: 4 3 0 1 5 2 2 5 0 2
Neighs:        2677.25 ave        3411 max        1688 min
Histogram: 1 1 2 2 3 3 3 4 3 2

Total # of neighbors = 64254
Ave neighs/atom = 142.78667
Neighbor list builds = 691645
Dangerous builds = 0
unfix            1

#fix             1 all nve
#fix             2 all temp/rescale 10 1 2000 1 1
#run             1000
#unfix           1
#unfix           2

write_data      end.dat
System init for write_data ...

Total wall time: 1:01:01
