ITEM: TIMESTEP
0
ITEM: NUMBER OF ATOMS
450
ITEM: BOX BOUNDS pp pp pp
-4.2652611239610749e-01 1.9151951262545488e+01
-4.2652611239610749e-01 1.9151951262545488e+01
-4.2652611239610749e-01 1.9151951262545488e+01
ITEM: ATOMS id type x y z
170 2 3.21531 2.54185 3.45592
120 1 2.41706 3.00973 1.71828
272 2 2.00718 4.53427 1.66938
134 1 3.60886 5.33672 1.88069
242 2 0.686939 2.26686 1.51089
234 2 3.13643 1.78436 0.921638
276 2 7.5544 0.962609 4.27414
177 2 4.60685 4.13886 1.94183
247 2 6.96697 3.34702 2.3363
118 1 5.50571 2.48997 1.51405
200 2 5.97557 0.55312 1.72292
28 1 2.07198 0.531271 0.388655
113 1 8.92963 3.87456 2.02054
214 2 5.6271 3.03808 -0.0414715
78 1 3.31272 2.87467 5.15832
379 2 5.71262 1.73738 6.0447
252 2 2.52733 3.21266 6.6283
203 2 3.59137 4.61533 4.68854
95 1 9.10986 -0.154312 7.80063
57 1 6.8302 0.377182 5.69349
403 2 8.72835 0.589133 6.49627
133 1 1.40164 3.69316 7.78108
257 2 4.79461 5.8076 7.0217
268 2 6.22465 0.217858 7.44595
319 2 8.34105 4.03948 5.33803
73 1 8.44591 5.54645 5.89834
260 2 9.1588 5.49936 7.48681
256 2 -0.293173 1.2885 5.99441
303 2 -0.116699 3.65161 7.41093
92 1 3.80276 6.05738 5.69363
17 1 4.87369 -0.178569 8.18626
347 2 6.9651 5.26924 9.10533
438 2 9.11856 0.979293 8.87058
248 2 1.29773 2.23268 8.6004
149 1 8.90315 5.54597 9.16091
213 2 3.1409 0.393011 8.46094
394 2 1.65644 4.72182 9.06389
123 1 5.17786 5.2569 8.93188
230 2 4.849 3.6826 9.2633
218 2 5.13574 1.80565 12.0252
418 2 3.3557 1.99627 10.1132
77 1 5.10486 2.25145 10.464
39 1 5.4563 0.664962 13.1427
94 1 2.47556 4.96258 13.7961
407 2 1.85825 4.73071 12.24
23 1 1.381 5.82831 10.4537
116 1 8.39458 5.45639 13.5748
75 1 8.48161 -0.0718265 13.6973
369 2 6.80508 4.75433 14.1838
397 2 9.34765 4.6469 12.443
209 2 7.13668 0.632641 12.5827
367 2 5.53954 0.801307 9.64436
389 2 0.340443 2.02566 12.9004
69 1 2.11786 1.02405 9.49377
449 2 -0.113319 5.93621 10.6981
305 2 1.00731 0.782851 10.5508
330 2 4.29411 4.7003 14.1814
107 1 0.683514 0.649939 12.1131
395 2 3.64917 3.95271 17.6655
100 1 2.45364 3.20321 16.6793
24 1 4.96559 5.29093 17.8012
168 2 4.23513 1.68306 17.3502
83 1 4.73498 0.489098 16.372
304 2 2.33937 3.72018 14.9985
59 1 0.100267 5.0476 17.143
406 2 1.34771 1.93693 16.9727
159 2 1.46997 6.04688 17.4848
415 2 5.10349 1.25866 14.9147
306 2 -0.31559 4.354 15.0676
15 1 0.10489 2.28306 18.0735
404 2 1.17107 3.81346 17.9443
285 2 6.32346 4.10018 17.4051
355 2 8.64578 0.336362 15.2582
31 1 5.45869 5.36566 15.1614
147 1 8.21285 0.842822 16.8271
311 2 6.93734 1.73065 17.43
295 2 0.741009 0.848118 18.8986
27 1 5.46625 2.80227 17.934
300 2 3.84689 5.99611 16.7272
178 2 9.27181 5.57576 15.1947
341 2 3.07955 6.68493 2.1874
40 1 2.07045 7.968 1.8787
359 2 0.36796 8.32545 2.45292
350 2 3.16133 9.24078 1.69679
68 1 0.888238 12.4409 2.9783
387 2 0.845886 12.1046 1.32384
3 1 3.85548 9.79908 0.322053
250 2 6.52641 7.73583 1.3441
383 2 1.80824 7.4633 0.405929
244 2 5.24486 10.7104 0.402855
154 2 6.99661 8.78807 3.69517
131 1 6.426 11.7187 1.07232
152 2 7.21918 10.4731 1.73081
191 2 8.88958 7.78804 2.51568
136 1 7.50778 8.64725 2.22036
401 2 -0.409527 11.5769 3.30061
335 2 4.07256 6.11627 -0.154296
117 1 1.29016 12.2229 -0.39105
282 2 2.7297 10.9498 -0.330311
253 2 3.21427 10.7071 8.66178
364 2 2.21627 8.90006 6.86668
316 2 2.36169 6.56987 6.60182
328 2 4.57507 7.57113 5.25084
365 2 -0.337426 7.89687 5.71282
216 2 5.17568 10.3564 7.13609
72 1 3.34835 10.1116 7.21139
382 2 0.568873 12.3538 7.53524
357 2 0.335988 7.2947 7.70596
87 1 1.19721 7.84676 6.50745
14 1 3.60904 12.0748 4.8256
157 2 3.70233 10.3295 5.30758
251 2 7.31538 11.983 7.54965
363 2 6.75499 6.65816 5.36367
186 2 6.92679 9.0617 6.45791
10 1 6.18428 8.0723 5.19723
102 1 6.62495 10.2268 7.69623
421 2 9.22963 6.28533 4.87702
346 2 1.00229 11.6947 5.18514
262 2 5.11649 12.4724 4.50316
324 2 6.58103 9.66027 9.15045
184 2 8.04967 6.96816 12.925
288 2 4.83774 11.4069 11.1855
344 2 4.7072 6.53896 9.80594
416 2 2.27604 7.05437 11.1257
386 2 4.72839 8.81556 11.2392
298 2 2.28819 6.54248 13.5175
146 1 0.456196 9.9855 14.1386
105 1 3.90991 7.49068 10.9857
378 2 0.351512 11.0932 13.1324
235 2 5.17897 10.599 13.6691
37 1 5.92491 10.0153 11.3567
436 2 6.96643 9.22384 12.3337
21 1 8.16954 8.56131 12.981
245 2 7.38003 11.9179 11.7165
56 1 8.01797 12.5236 13.1616
280 2 6.0584 6.50867 17.6017
419 2 3.62684 8.5738 18.7518
302 2 6.00433 6.78944 14.9786
66 1 2.46648 6.35312 18.8729
249 2 0.0349996 10.8145 15.4685
231 2 0.971762 9.01683 16.9254
96 1 4.35691 10.7103 15.1529
148 1 5.83355 8.29352 16.8748
114 1 0.0547128 10.2594 17.031
413 2 4.74502 9.08836 15.7408
373 2 0.266586 11.4857 18.229
271 2 7.29736 9.04316 17.345
125 1 8.40503 9.44631 16.3255
212 2 8.06877 8.89637 14.8229
278 2 8.67647 11.0124 16.831
377 2 9.05136 6.10927 17.7972
195 2 3.36177 11.9723 14.9316
180 2 5.52077 11.3981 16.661
160 2 8.08655 12.0901 14.6099
2 1 9.17169 12.3673 15.816
53 1 7.27506 19.0926 2.54259
439 2 8.70803 18.9421 1.59932
182 2 6.55759 18.5163 3.80626
4 1 8.60593 17.7936 0.159421
294 2 6.38223 12.9601 2.32984
396 2 2.64785 12.626 3.38892
161 2 7.51598 14.8531 0.0616946
299 2 2.30336 15.9347 1.89697
85 1 6.35081 13.2831 3.92579
358 2 5.30167 16.2189 0.967618
314 2 0.548315 14.2878 2.86031
399 2 1.70389 16.3314 4.32642
417 2 4.43614 16.968 3.27084
446 2 -0.000503714 16.8512 2.32371
130 1 3.83602 16.3047 1.76631
41 1 1.01357 15.7892 3.00163
143 1 5.73765 16.6087 4.21617
217 2 5.69028 14.8921 3.87185
111 1 9.12949 14.9609 -0.0601703
374 2 2.88224 18.7157 0.640646
54 1 -0.156322 12.6646 6.00615
109 1 8.01812 16.3675 8.90589
127 1 5.36008 16.0083 7.76397
63 1 2.09593 17.6381 5.42732
441 2 4.97956 17.5574 8.43177
360 2 4.99275 16.0365 6.14747
239 2 3.78992 15.1021 7.83369
219 2 3.65707 18.7622 5.28115
291 2 0.590012 18.3701 5.33501
128 1 3.60337 13.6131 7.7952
190 2 2.10245 17.1393 6.86275
265 2 2.95538 12.7879 6.41467
322 2 4.31221 12.9892 9.03846
292 2 0.451582 19.005 8.18571
124 1 1.33296 17.5217 8.38926
447 2 7.46577 12.659 5.01136
43 1 8.09796 13.0154 6.51827
390 2 0.219039 16.1291 8.22395
166 2 7.49884 16.4549 4.78079
356 2 7.94678 14.6885 6.54632
42 1 8.96082 15.6154 5.3159
196 2 6.59793 15.2732 8.74814
269 2 8.65185 17.6172 8.10766
98 1 4.9004 12.8949 10.7514
211 2 -0.040983 16.887 10.9031
315 2 -0.0306212 16.2137 12.9664
323 2 2.34393 16.6297 9.43343
175 2 -0.355262 13.5997 12.7453
151 2 4.56489 18.8827 13.3768
227 2 3.10015 16.5428 11.8479
258 2 1.54401 14.7341 12.2692
393 2 4.8977 14.0448 12.1381
140 1 3.72681 17.34 13.1235
112 1 0.306894 14.7056 13.3913
193 2 7.39402 17.9987 13.6506
201 2 6.72706 13.4993 13.4294
36 1 5.48786 14.6239 13.6775
199 2 7.69898 16.4672 10.7041
361 2 6.2918 15.9969 13.6991
273 2 8.95602 16.0907 13.3562
67 1 7.6911 16.4856 12.4737
172 2 -0.188938 18.9084 12.3254
51 1 1.43206 16.118 11.109
435 2 -0.35578 16.6167 18.8488
345 2 4.76181 14.8153 18.2237
425 2 7.98168 19.032 17.3935
307 2 2.01303 13.7118 18.9242
336 2 6.57079 16.7708 17.8485
450 2 4.08005 14.9463 14.7772
204 2 3.48628 19.1228 16.2658
169 2 3.74883 16.7482 16.6221
422 2 1.40261 13.9643 14.5039
65 1 3.23602 15.3719 17.7766
240 2 2.94982 17.1426 14.4796
208 2 2.85587 13.9679 16.6478
9 1 2.71056 17.8041 16.0066
171 2 1.95114 16.8818 17.66
11 1 3.05412 13.4979 15.1206
48 1 0.176207 17.4573 17.5877
156 2 6.17576 18.8828 15.8097
210 2 8.19965 16.6365 15.8079
326 2 9.0522 14.2318 15.5829
129 1 7.45789 17.9917 16.1571
431 2 0.76546 18.1673 16.1055
115 1 6.02909 15.7979 19.1466
443 2 9.92266 0.0196195 4.23281
238 2 9.50122 2.6672 2.92935
402 2 9.58285 4.35496 0.445222
38 1 14.6923 0.469877 -0.264399
135 1 11.3448 0.322049 0.969176
297 2 13.1925 -0.130983 0.666617
5 1 18.9451 1.94738 2.55431
119 1 16.5146 2.32091 1.26312
409 2 16.3106 5.59412 2.96647
139 1 18.0744 4.79887 3.79847
277 2 15.9042 1.99046 3.14187
165 2 17.8936 1.6703 1.534
432 2 13.3562 3.59662 3.76378
47 1 14.2509 2.08816 3.52905
400 2 13.5079 0.593896 4.13252
354 2 18.752 3.60799 2.86562
308 2 18.9884 0.248459 2.76863
185 2 9.51883 5.25828 2.77467
434 2 16.9888 4.10813 0.144867
192 2 15.0569 1.79934 0.507806
215 2 13.7538 2.93243 6.76591
74 1 12.0136 3.74968 5.99529
339 2 11.0702 2.55093 5.43593
108 1 9.40126 1.62993 4.64654
290 2 11.6971 5.38219 6.08957
414 2 16.6532 2.89639 6.13395
348 2 18.3816 4.33577 5.40033
137 1 18.3994 2.68748 6.23111
84 1 15.4533 2.89429 7.07632
264 2 15.6246 1.35153 7.64163
342 2 17.6695 5.96222 7.61878
34 1 16.2367 -0.325579 8.05309
44 1 19.0732 -0.263353 6.62734
405 2 15.4029 3.67959 8.80794
202 2 9.88317 0.0698252 12.7016
46 1 10.1206 3.7323 10.9847
183 2 10.052 4.28692 9.5928
228 2 12.0136 4.33222 11.3504
79 1 18.7042 3.18318 14.0156
301 2 16.8998 5.09032 10.7009
188 2 18.5951 3.86877 12.339
101 1 18.1703 5.37828 11.5239
97 1 12.0349 3.29002 12.6377
366 2 13.0606 2.63646 13.6566
220 2 10.5788 2.7545 12.059
104 1 11.049 -0.324243 11.7637
229 2 11.5836 0.966213 10.9482
376 2 14.2175 0.434597 13.2365
71 1 15.9115 5.40649 9.41016
52 1 13.3083 5.36444 19.0182
173 2 12.7336 3.60831 16.1863
254 2 11.3667 1.66732 18.0659
430 2 18.1575 2.01596 17.7503
145 1 14.0145 4.12412 15.4357
241 2 14.7592 2.47993 15.809
237 2 13.5889 3.61851 18.6613
16 1 16.9718 0.372171 15.4677
261 2 17.6015 2.24904 14.9522
58 1 12.8519 2.60789 17.4432
362 2 15.3672 5.01096 15.2783
194 2 15.3603 0.122591 14.9479
296 2 18.116 5.64316 17.7241
30 1 16.6732 5.80991 18.7373
144 1 14.1037 1.54962 14.6577
121 1 10.0276 4.86526 18.5216
279 2 11.5225 5.54872 18.81
205 2 10.3072 3.54366 17.3197
329 2 13.0202 4.90497 14.2604
340 2 11.351 0.866868 15.9697
142 1 11.9212 0.336578 17.3556
370 2 13.3464 1.00894 17.8999
428 2 14.0713 5.72868 17.4858
179 2 10.5502 -0.256868 18.9936
232 2 14.5098 9.05723 0.370615
338 2 18.9813 6.43103 3.74172
61 1 18.6664 7.98374 3.46289
164 2 16.3481 11.1366 2.99819
49 1 9.98854 6.63413 3.36185
380 2 11.5659 6.93987 2.58474
321 2 13.4519 6.94843 0.117134
132 1 15.8968 7.00894 3.83805
86 1 12.7592 7.96774 3.3783
22 1 17.4226 10.6462 4.35394
332 2 16.8496 7.96666 2.73402
440 2 14.4056 7.2695 3.19052
197 2 13.2437 9.8104 3.05835
1 1 14.5239 10.9914 3.37311
198 2 16.3541 7.23381 -0.201324
226 2 11.6602 11.1249 7.02811
448 2 17.9159 9.16895 4.49134
327 2 11.293 7.67858 7.68065
313 2 15.8708 6.95075 5.55918
91 1 11.9968 6.98524 6.17552
284 2 17.1555 8.46068 7.05648
6 1 18.1188 7.29898 6.74471
221 2 11.8882 7.91501 4.82763
150 1 15.1567 7.63715 7.02871
333 2 17.8198 11.7706 5.70192
155 2 13.6218 6.841 6.45176
442 2 13.848 10.8059 5.38587
427 2 14.4676 9.21718 7.04816
349 2 17.5496 11.8514 8.44308
19 1 13.5347 10.5206 6.99889
437 2 14.1915 11.9182 7.8822
223 2 15.2502 6.75534 8.63059
93 1 10.586 8.10573 8.97098
320 2 9.46702 7.21019 9.41205
412 2 19.0849 12.2839 10.3406
286 2 18.9546 8.85795 13.6945
263 2 9.85353 9.02643 12.4153
411 2 11.2142 9.20398 10.0369
106 1 11.3743 9.65129 11.6842
233 2 12.3125 7.00205 13.0345
445 2 12.7294 9.58894 12.4802
70 1 18.7856 12.1008 12.1571
167 2 15.09 11.1461 11.6686
246 2 14.8661 12.4686 13.2459
81 1 17.1912 7.91568 13.4569
289 2 17.5854 6.66185 12.4446
266 2 16.1195 8.76883 12.3748
26 1 16.3987 10.0435 11.4197
158 2 17.558 11.3153 11.8302
60 1 14.4295 12.5737 11.5833
243 2 12.3339 12.2991 11.1985
408 2 16.7224 8.99963 10.1069
141 1 9.79596 6.62918 16.2008
444 2 9.43302 8.08977 16.5768
423 2 11.4852 6.55667 15.6364
353 2 10.7317 12.2073 15.5895
32 1 12.8708 6.555 14.5091
207 2 15.9841 8.55997 17.1547
287 2 16.6938 7.39971 14.8873
429 2 14.2835 7.40511 15.1822
25 1 15.5324 8.08643 15.7614
318 2 15.2671 9.86086 15.1691
126 1 15.1411 11.3973 14.5174
189 2 13.9137 12.0725 15.3186
110 1 15.6381 8.58125 18.7807
174 2 16.5488 12.3094 14.9644
255 2 17.4821 17.7713 0.94719
236 2 11.8974 18.4383 2.24995
372 2 9.50479 16.3397 0.3611
420 2 13.6605 16.7027 -0.0446945
368 2 14.2002 17.8522 3.33651
371 2 14.1198 12.6496 2.96676
381 2 17.6221 14.4597 0.646225
12 1 15.3013 13.9148 2.27091
8 1 15.5659 17.0441 3.97978
18 1 12.8148 18.5665 3.71987
283 2 17.0724 17.6348 3.30162
206 2 10.9794 14.1395 1.34686
293 2 12.3384 15.4863 2.96488
64 1 18.4858 18.0571 2.65612
337 2 9.73146 14.8372 4.20369
62 1 11.0152 14.7326 2.76833
424 2 15.2014 15.5301 3.0582
187 2 14.09 14.4493 1.22391
76 1 13.3089 16.0256 1.62901
309 2 14.7073 15.0496 7.6287
433 2 18.205 14.1476 8.52622
312 2 19.1218 14.2013 6.10028
391 2 12.1116 13.9934 5.71713
388 2 9.78746 12.9624 7.04479
7 1 11.6557 12.7887 6.90213
281 2 9.5887 15.6001 8.71874
343 2 16.9014 16.2498 6.85934
138 1 18.836 12.6811 8.88047
352 2 14.631 16.888 5.50105
82 1 15.1445 16.5907 6.94421
259 2 15.0181 18.1435 7.55012
153 2 12.0488 13.4992 8.37118
426 2 11.6932 16.2038 7.57736
275 2 9.99987 16.9945 5.81883
331 2 17.4669 18.9336 7.02684
225 2 12.2339 17.9577 5.01735
99 1 11.6862 17.1503 6.40496
122 1 18.2795 15.1948 7.20607
20 1 14.0921 13.7331 8.59528
35 1 10.7992 14.4865 8.84405
267 2 14.3388 13.7441 10.4047
45 1 18.5087 17.4328 12.1989
317 2 12.0916 17.9746 12.4081
310 2 16.5487 19.04 9.66028
89 1 10.9784 13.2519 12.1484
176 2 9.44059 12.8886 12.7148
351 2 11.8348 12.9439 13.4432
80 1 13.5749 18.3749 12.7901
392 2 10.643 14.238 10.6057
375 2 14.3157 17.7971 11.1097
224 2 16.8797 17.0033 11.8523
88 1 15.9452 17.8758 10.8572
410 2 13.5264 17.07 13.8907
29 1 17.584 15.5141 18.9515
398 2 13.041 18.4808 17.5326
274 2 16.282 16.6567 18.2103
162 2 18.2953 15.067 14.5846
90 1 12.4232 13.0199 14.9956
270 2 15.8514 14.8235 15.0999
13 1 17.2213 14.713 15.666
222 2 14.43 16.3934 16.6704
163 2 17.4359 18.6189 14.5588
334 2 17.8106 14.6082 17.5101
181 2 10.4823 16.8019 15.2876
55 1 9.43835 15.737 14.8684
325 2 12.9121 14.5845 15.1038
385 2 18.1532 18.1227 17.1018
33 1 14.2437 15.9506 15.0217
384 2 15.5903 19.0788 17.8222
50 1 13.9774 17.1781 17.9179
103 1 16.9775 18.1649 18.2615
ITEM: TIMESTEP
100000
ITEM: NUMBER OF ATOMS
450
ITEM: BOX BOUNDS pp pp pp
-2.5041414291408870e-01 1.8975839293063501e+01
-2.5041414291408870e-01 1.8975839293063501e+01
-2.5041414291408870e-01 1.8975839293063501e+01
ITEM: ATOMS id type x y z
43 1 3.20573 0.197233 0.405801
14 1 0.91156 2.62828 0.559028
231 2 2.16116 1.42717 0.682561
193 2 5.30861 3.17348 3.01581
162 2 7.11764 2.2009 0.129763
450 2 2.11489 3.13484 2.91634
298 2 6.17375 4.3109 1.21029
88 1 1.11432 3.73203 3.99467
242 2 9.04194 2.89985 1.48889
196 2 3.95508 5.60531 2.74764
8 1 5.442 5.1568 2.45583
126 1 4.65508 0.77887 3.17774
230 2 4.02029 0.106267 1.86888
410 2 6.30641 -0.127403 2.96446
352 2 6.78402 4.96075 3.40896
55 1 7.58321 3.5683 0.840531
198 2 3.41833 0.461239 4.46776
178 2 8.58932 0.281412 3.68103
425 2 1.29043 5.54247 2.83867
302 2 1.48697 0.788741 3.33404
97 1 2.73082 5.92087 1.79337
16 1 5.76128 3.41965 6.63252
206 2 5.70146 3.24346 8.29243
299 2 1.80534 0.115384 8.98965
38 1 8.94443 2.45706 6.35055
330 2 4.30542 1.95788 6.69223
15 1 2.63493 1.97415 6.1998
331 2 1.98326 -0.181735 6.05538
357 2 5.67396 5.47459 5.65859
367 2 1.57576 1.93593 7.39404
259 2 1.39072 3.20797 5.48526
221 2 7.04122 2.37354 6.618
96 1 1.19199 1.70059 9.00914
403 2 9.17814 0.530904 8.83706
66 1 1.1906 0.456968 13.4845
145 1 8.88065 2.11819 13.4869
157 2 5.19314 2.49809 13.5614
158 2 0.505737 2.22707 13.3769
199 2 7.8705 4.21644 9.40858
293 2 4.29778 0.549915 11.4048
360 2 1.30224 -0.0214201 12.079
42 1 4.75616 2.09946 12.0088
355 2 1.85714 2.9834 9.8261
87 1 1.10061 5.66207 11.6747
151 2 7.9161 0.800234 13.6552
446 2 5.10993 2.82548 10.6746
333 2 8.09247 3.60026 13.5443
317 2 0.835999 4.50041 12.56
437 2 5.52311 5.61773 11.3279
105 1 6.41052 3.21813 9.77673
102 1 7.64328 0.233723 9.69613
180 2 7.90711 5.985 12.9503
396 2 6.93851 1.58991 9.89458
149 1 4.68629 2.27634 15.1287
17 1 8.47941 5.48622 14.4205
114 1 8.00354 1.62122 18.1045
240 2 3.75861 4.75141 17.5601
136 1 4.81371 4.86723 16.2871
153 2 5.08242 0.822454 15.1568
359 2 8.50497 4.08632 18.7615
13 1 2.56197 3.72513 17.128
449 2 4.08106 0.0897815 18.3914
320 2 5.63534 5.63551 14.8105
284 2 3.15891 3.12132 15.738
414 2 7.37183 0.390667 16.861
202 2 9.04518 4.61287 16.0905
384 2 1.45612 4.98278 16.6059
226 2 1.89824 2.74595 18.5266
441 2 5.4784 3.23946 16.2346
393 2 7.08553 11.1089 3.6648
122 1 6.27232 10.982 2.24612
377 2 1.85466 11.4556 3.00211
343 2 6.10153 12.2926 1.42618
9 1 3.77403 12.142 4.53031
381 2 6.62468 9.27175 1.97362
213 2 4.50434 11.7625 3.24569
141 1 0.872585 8.21192 0.492221
79 1 1.53118 9.88459 3.35487
285 2 2.98399 9.46552 4.11239
379 2 6.02241 6.99789 0.105616
328 2 1.36499 8.89582 1.97371
250 2 5.37081 7.5594 4.48201
340 2 3.52931 6.42242 0.454941
334 2 0.990599 6.53387 -0.218086
324 2 2.75989 7.25121 6.37063
286 2 4.83468 8.59025 6.35769
200 2 0.903203 11.7268 6.21148
447 2 8.28916 9.74931 5.79885
354 2 8.94932 10.1843 8.17124
442 2 8.06062 12.2213 6.50215
197 2 3.56382 12.0778 6.12643
101 1 7.94643 9.05635 7.31967
316 2 2.76564 11.4329 8.23203
104 1 0.954739 7.86142 6.54522
54 1 3.98295 7.81146 5.22097
217 2 1.12919 9.374 6.52534
273 2 5.30203 11.1072 7.52654
345 2 6.43377 9.12353 8.14765
44 1 1.32811 10.7939 7.4453
71 1 6.78658 6.74082 5.41963
70 1 8.07544 11.5234 5.05253
406 2 0.187672 10.6976 8.99256
413 2 0.340172 6.96466 7.98706
19 1 4.80719 9.41922 7.94079
337 2 7.42093 7.52135 6.95554
364 2 8.47346 6.74301 4.68149
135 1 4.56547 9.80299 12.6689
415 2 0.249012 9.32654 11.8592
98 1 1.20594 11.7112 13.2362
309 2 1.02357 11.4261 11.5667
300 2 2.01065 7.08996 12.3305
350 2 8.76835 11.1685 10.8745
110 1 7.22948 6.4622 11.3133
109 1 2.69667 7.72455 9.76514
378 2 5.20235 11.1003 12.401
303 2 2.32145 6.19999 9.81401
279 2 3.17743 10.3664 12.5796
222 2 1.63432 8.80842 9.78182
32 1 8.91312 10.2017 12.38
131 1 0.854845 10.1633 10.5697
267 2 8.01778 7.09542 9.96772
288 2 4.96515 8.46666 13.8409
185 2 7.77585 9.45714 12.9649
175 2 -0.133745 6.18517 10.8374
86 1 0.618141 8.09491 12.9054
335 2 4.02145 8.78133 9.55744
27 1 9.26534 10.939 9.57187
374 2 3.74709 7.73413 15.7727
68 1 5.31554 7.55817 15.3075
254 2 2.42445 9.99175 16.6295
274 2 6.79561 7.53142 15.0065
353 2 6.04695 10.6051 15.8458
63 1 8.3289 8.23745 15.4846
276 2 4.31392 11.3535 18.4555
212 2 7.22093 11.8325 17.984
150 1 2.27885 8.51069 15.6674
422 2 2.35125 11.5158 14.5681
94 1 6.44968 10.3573 17.5944
366 2 1.0272 7.74022 16.4502
119 1 3.39661 10.0983 18.0341
121 1 0.621425 6.22956 17.2666
195 2 8.47467 7.95826 17.2508
365 2 4.69311 9.56549 17.4907
72 1 8.32551 8.35389 18.8696
408 2 6.99597 9.20899 18.5029
161 2 5.33495 6.43856 16.8237
308 2 2.16659 8.43583 18.7104
53 1 4.84386 6.31928 18.5513
218 2 9.37022 9.81254 18.28
341 2 8.96045 6.94249 14.9565
311 2 1.48157 8.47591 14.2423
107 1 7.16472 12.8547 0.0396851
369 2 1.94534 18.3134 0.325892
248 2 2.2377 17.1361 3.90439
297 2 1.51674 15.4725 2.74939
24 1 1.03616 12.8686 2.91274
1 1 2.84615 15.8254 3.41847
28 1 2.10778 18.7034 4.34162
281 2 6.474 16.6275 3.43969
315 2 -0.128934 12.9959 1.62375
204 2 3.15357 13.7794 4.10184
326 2 8.97512 17.2457 3.96891
183 2 8.56523 12.6993 0.622824
289 2 0.206747 13.3406 4.20505
113 1 7.56508 18.3583 3.98046
392 2 4.32289 16.2762 3.15244
375 2 0.854903 14.0258 6.58021
49 1 5.37775 16.7191 4.63003
372 2 4.39609 18.6609 8.28409
418 2 7.80193 14.1546 8.52614
363 2 6.95135 13.9356 5.46535
426 2 9.09685 15.0126 6.37131
103 1 7.77028 13.9292 6.79525
165 2 6.96664 18.7122 8.4002
130 1 1.96808 15.0694 7.63784
143 1 5.86218 18.4695 7.13657
370 2 6.64456 18.6284 5.64593
223 2 1.90005 16.9266 7.69167
207 2 3.33571 14.1246 7.59168
73 1 1.2341 18.4581 7.5651
427 2 5.53826 16.9771 6.33722
52 1 -0.00935998 12.971 5.82284
56 1 3.96194 12.6561 7.55763
80 1 3.77676 18.1808 11.7601
234 2 3.07676 17.0271 10.8674
21 1 7.26554 14.3132 10.1173
144 1 1.61055 16.3587 10.7534
69 1 7.93378 18.2637 13.054
208 2 2.11395 15.1485 9.46251
439 2 5.97147 15.3953 10.2935
398 2 6.22479 13.4195 11.1182
215 2 8.33176 14.9967 11.1372
2 1 5.11096 13.0723 12.3021
227 2 3.6234 18.6093 13.4886
339 2 3.48943 13.1264 11.7769
305 2 1.20438 13.9507 13.2969
371 2 1.62434 16.2641 12.9181
172 2 8.86297 16.7983 13.1906
417 2 5.1495 13.9424 13.6646
323 2 6.32965 18.3412 13.5059
118 1 0.627148 15.336 14.0476
62 1 9.27997 15.032 12.7879
440 2 7.47516 18.8099 11.21
296 2 8.19414 16.2766 18.5643
127 1 6.66851 15.9051 18.2344
142 1 5.85 14.2741 15.4091
203 2 4.21846 13.541 15.95
421 2 0.527662 18.9034 14.8023
347 2 4.53677 17.631 15.8968
245 2 1.56457 13.4212 16.6457
292 2 6.31521 15.5521 16.5291
23 1 2.85553 12.5446 15.7682
138 1 0.616089 17.4805 18.8275
128 1 4.35462 17.9445 17.5693
225 2 5.07723 16.7557 18.2956
64 1 0.865037 14.4202 17.7871
210 2 0.600438 18.5438 17.6635
57 1 4.96041 18.2355 14.4719
342 2 7.66506 13.4837 15.4369
173 2 1.24574 15.7555 18.4607
111 1 9.01576 12.9305 14.7572
124 1 -0.261706 18.9466 16.3799
430 2 6.845 14.3336 18.6152
409 2 16.0711 0.475014 2.35742
22 1 16.07 3.1726 3.43025
291 2 16.1041 5.16875 3.8026
387 2 15.092 1.27907 0.0252186
275 2 13.5949 3.07967 1.48974
85 1 10.3887 1.98924 2.21077
182 2 11.6895 2.64328 2.83825
373 2 18.8286 3.55621 3.66904
146 1 14.9428 3.1126 0.524598
313 2 15.9224 3.48217 1.86516
236 2 18.7301 1.85587 0.398626
191 2 17.0763 1.98395 4.32938
83 1 13.0769 3.38698 3.33487
429 2 14.6111 2.6475 3.79845
29 1 16.9206 0.412869 3.77876
438 2 10.8698 0.683163 1.07996
58 1 15.0118 0.00238717 1.06477
6 1 12.022 -0.0166857 2.01713
346 2 13.4891 -0.192218 1.48819
244 2 16.8515 2.0591 8.05475
436 2 12.3326 1.46845 6.20873
76 1 10.1709 -0.104503 7.44016
7 1 17.1191 0.894937 9.06536
186 2 9.37893 1.06358 6.55057
256 2 9.61064 3.16727 7.83995
220 2 12.6337 5.26968 7.45616
51 1 13.7669 4.51731 8.5462
89 1 9.35389 4.08492 9.10234
232 2 17.0521 5.20111 6.03528
116 1 16.6507 3.90299 7.32575
163 2 11.8544 0.0422337 8.00251
78 1 12.0131 5.1955 5.83802
432 2 15.1672 4.18917 8.04374
307 2 10.1438 5.74161 9.06518
95 1 12.8426 1.46332 7.76374
154 2 14.2446 0.345503 7.35795
356 2 9.74308 3.39113 5.24484
167 2 18.1619 4.32042 8.02318
211 2 13.126 2.73797 8.63821
18 1 17.2123 6.10036 4.82163
224 2 10.8604 6.05883 5.27704
152 2 12.5599 4.28623 4.69064
67 1 18.2938 6.08655 7.99551
395 2 14.7313 3.07487 12.4464
344 2 12.0355 1.42946 11.2703
412 2 15.9738 1.74394 10.3564
36 1 18.7372 3.10943 12.1516
394 2 13.813 5.51283 10.3086
77 1 11.2201 3.14969 11.3455
283 2 17.4064 2.25162 12.5905
380 2 10.7469 3.55568 9.90203
338 2 12.2411 -0.10345 13.4416
106 1 15.9436 1.8099 12.0853
45 1 13.4496 3.63582 12.9903
264 2 9.72672 2.76416 11.9206
237 2 12.2327 2.53856 13.6643
322 2 12.1705 4.17191 11.9752
407 2 15.9913 0.487775 12.921
5 1 12.4323 -0.245994 11.9185
241 2 18.5984 1.03536 9.57366
278 2 10.1442 1.51615 14.5942
74 1 13.5951 1.79598 17.3453
243 2 11.1756 5.12204 18.089
383 2 15.1702 4.60452 18.864
325 2 11.574 5.78333 15.4031
39 1 16.7388 2.2813 16.7745
50 1 11.8168 1.17223 14.6218
266 2 17.9576 1.19875 16.5121
129 1 16.7459 5.38758 17.818
382 2 15.1038 2.52069 16.2792
332 2 18.2909 5.81653 17.4751
181 2 12.1934 1.28563 16.0493
282 2 17.146 3.60596 17.5971
390 2 12.8814 3.1411 17.524
37 1 12.9697 5.88554 14.3248
134 1 9.97682 3.90099 17.4966
314 2 13.7739 0.0950053 17.5638
348 2 13.3676 4.37769 14.6068
287 2 9.73519 2.14622 17.6952
40 1 14.8879 10.1526 3.26414
327 2 16.3104 9.40929 2.9405
306 2 15.6696 10.2564 0.420771
194 2 17.7862 7.15685 3.53265
47 1 13.5282 8.07816 1.04853
31 1 10.1583 7.02861 4.55332
295 2 12.4254 10.0502 0.488787
219 2 12.1176 7.43869 0.672206
169 2 10.7704 8.59679 4.50469
268 2 13.9518 8.57303 2.54411
205 2 14.2712 11.3144 2.3835
405 2 18.6746 8.77302 -0.0697122
84 1 10.704 6.95903 1.3373
190 2 18.97 9.70419 3.59126
238 2 11.0425 12.2784 0.75258
34 1 17.7091 8.66838 3.02683
400 2 9.53034 7.65133 0.445055
290 2 10.2399 6.25748 2.66241
156 2 12.2902 12.3889 3.99776
147 1 12.2963 11.6265 -0.201318
187 2 14.5869 7.93799 -0.0209663
235 2 15.6548 10.4314 4.66299
233 2 13.5057 10.2095 9.24838
402 2 16.9552 9.82911 6.95246
59 1 16.3322 11.5052 6.44103
92 1 11.6016 9.6266 5.95523
228 2 14.79 11.436 7.51374
168 2 11.8406 10.7619 7.12693
216 2 15.3087 7.31728 5.9187
75 1 16.2101 8.27308 6.72589
443 2 18.8397 7.78175 5.69441
358 2 17.0365 7.02364 7.70306
319 2 11.4364 8.28589 6.63582
46 1 13.1722 11.3761 8.02043
192 2 13.1053 9.9118 4.93722
201 2 9.90837 11.7973 5.13201
294 2 9.92128 6.8715 11.3442
428 2 12.562 6.47823 12.7674
411 2 10.6508 11.7712 9.74415
93 1 16.4705 8.95946 12.8374
132 1 15.876 12.2781 12.4367
65 1 12.5442 10.131 12.7224
41 1 14.0214 8.64342 9.80604
263 2 10.286 9.31167 10.0899
444 2 11.0472 9.44046 12.6578
277 2 14.9801 12.4615 10.0657
262 2 12.5293 11.6954 12.0396
258 2 12.7937 7.50321 9.9452
115 1 12.6834 6.2046 11.1686
404 2 16.4788 10.6933 12.4412
431 2 13.5524 9.09114 13.1279
269 2 17.8571 8.06999 13.0561
100 1 9.79133 7.28325 9.81815
265 2 15.3854 8.76341 11.5595
448 2 18.8782 11.6933 13.8587
434 2 9.49865 12.118 13.522
209 2 12.76 12.3791 9.48635
389 2 15.8796 6.79689 17.7536
318 2 14.0828 9.03652 16.4979
174 2 13.8343 12.3563 18.8043
423 2 13.809 7.07997 14.9179
99 1 13.7026 8.85147 14.9783
304 2 16.9643 9.36668 17.084
246 2 12.0104 11.1793 14.779
137 1 10.0295 10.5633 16.8675
61 1 11.4658 6.30246 16.9406
433 2 10.1443 12.1773 16.0067
312 2 11.4662 11.5269 17.7083
159 2 15.5787 9.57103 14.2436
30 1 17.3792 10.0701 18.7927
91 1 15.1466 8.26056 17.737
247 2 9.34965 9.60007 15.6674
397 2 11.8158 7.84423 16.853
329 2 18.0946 11.6412 18.5105
229 2 18.7545 17.4781 0.731074
170 2 14.0535 13.912 1.7353
424 2 10.9812 14.7015 0.614286
117 1 17.4559 16.6367 3.48667
177 2 15.8496 16.1869 3.59304
419 2 17.7874 18.1479 3.73619
388 2 15.1255 17.8094 0.402047
82 1 13.7314 12.837 2.96316
10 1 9.79791 18.3739 4.43273
155 2 13.8225 15.1138 4.43228
12 1 15.3797 14.4765 4.15739
351 2 11.2092 18.7259 3.39516
249 2 14.9883 12.9008 4.52686
11 1 14.9482 13.5307 0.470409
252 2 9.68003 13.2769 3.05865
48 1 18.3011 13.0324 -0.0466032
125 1 10.6269 13.0174 4.46257
188 2 16.6311 13.9798 2.92186
171 2 16.7571 13.5687 0.411755
133 1 10.0286 13.5486 1.07962
120 1 14.8401 18.6382 6.34885
33 1 10.2751 16.2888 6.70238
385 2 11.3912 14.7433 4.97075
179 2 15.755 16.9153 7.20104
176 2 12.7766 13.2672 6.7938
35 1 16.9735 15.6144 6.47091
26 1 14.2797 16.0674 8.06519
160 2 17.5812 12.526 6.09809
336 2 15.3663 14.6931 5.7353
260 2 13.058 16.2094 6.79681
189 2 17.6333 15.3418 7.96059
391 2 14.632 14.5942 8.44625
253 2 10.7371 16.2751 8.19793
123 1 12.7724 14.6544 5.7213
445 2 13.5742 16.9509 9.31174
271 2 18.2714 15.9245 4.99714
239 2 10.2231 18.0299 6.24499
270 2 16.2021 18.9949 5.15495
376 2 13.7198 17.9217 4.95546
3 1 18.0488 16.396 9.12465
361 2 18.887 17.5418 8.0444
90 1 12.0218 16.8921 9.31737
401 2 18.961 16.3911 10.736
272 2 16.0124 16.6429 12.1016
140 1 13.9853 13.7168 9.60534
251 2 10.5365 13.8108 11.5513
416 2 16.9253 15.51 10.3875
420 2 14.7881 12.9669 13.4064
164 2 16.9077 13.6644 12.3073
20 1 17.4748 15.4793 11.8757
184 2 14.0077 18.6671 11.8535
166 2 18.5979 15.7225 12.9441
81 1 11.5221 13.0567 10.5313
349 2 16.2833 18.7115 9.56808
112 1 15.2766 18.0822 12.6877
399 2 11.6111 17.6378 10.6526
310 2 12.7053 14.6912 10.429
148 1 14.6375 16.7672 15.4412
214 2 14.7548 17.221 17.0386
301 2 18.6337 13.9036 17.8139
261 2 12.1837 13.9499 14.797
25 1 11.217 15.4709 15.3303
362 2 14.8071 15.1945 14.6829
139 1 11.3907 15.8031 18.5903
257 2 12.3343 16.6404 15.0571
321 2 10.9204 15.5809 16.9589
108 1 14.3908 16.7136 18.4335
4 1 14.137 13.6458 14.8171
255 2 14.9441 17.6161 14.195
280 2 13.6068 12.9855 16.1261
435 2 12.8346 16.2692 18.0977
60 1 11.9946 12.6106 15.7489
368 2 14.9512 15.1908 18.6792
386 2 10.0643 14.93 14.3084
ITEM: TIMESTEP
200000
ITEM: NUMBER OF ATOMS
450
ITEM: BOX BOUNDS pp pp pp
-3.2022241812446417e-01 1.9045647568273949e+01
-3.2022241812446417e-01 1.9045647568273949e+01
-3.2022241812446417e-01 1.9045647568273949e+01
ITEM: ATOMS id type x y z
195 2 7.37824 2.16291 0.39384
21 1 4.92503 5.13519 2.51387
23 1 7.85565 0.587471 0.906777
435 2 5.4984 4.02733 1.52252
26 1 1.83699 3.80761 -0.0121646
112 1 6.94723 3.51238 1.08682
445 2 7.52259 4.93736 0.495078
386 2 1.94088 0.344863 2.25659
332 2 7.06258 0.610665 2.19117
227 2 2.40447 2.59379 0.989878
50 1 0.375369 0.275356 2.6032
186 2 8.54075 3.30668 2.27061
286 2 0.902882 3.67453 4.46151
105 1 3.09348 1.03681 1.011
168 2 1.07888 5.40468 -0.166584
403 2 5.79991 1.52165 4.45001
119 1 5.5822 0.652829 3.00542
377 2 4.3077 0.933896 1.9769
202 2 3.71661 4.39985 2.95445
395 2 5.97158 5.85421 3.54744
39 1 9.22254 3.89361 3.56143
431 2 6.99016 -0.0555307 -0.421905
62 1 2.42486 4.15527 4.52575
285 2 1.79743 6.2094 7.49116
82 1 7.26854 1.88337 8.24335
161 2 1.94749 3.4022 7.76756
442 2 8.86083 3.33738 4.98935
307 2 6.11288 1.36801 7.13119
427 2 4.97696 5.92898 8.97314
8 1 2.20872 1.79281 7.40895
154 2 0.812485 0.952788 7.4332
43 1 4.95565 1.3089 5.89316
269 2 8.1991 3.03218 7.62393
220 2 3.51365 0.899562 6.66516
293 2 3.81464 2.75506 4.95684
367 2 8.57654 5.46882 4.37679
372 2 7.99729 0.82105 9.16524
7 1 1.08743 4.79819 8.32606
20 1 9.26026 3.50959 6.66624
178 2 9.36856 4.69409 9.55223
149 1 9.27318 5.28428 11.007
399 2 9.01974 4.75136 12.4464
244 2 1.62115 5.2704 9.96116
254 2 4.03307 3.56428 13.9845
213 2 -0.258862 2.66848 13.1691
107 1 8.18595 4.23082 14.0917
346 2 5.91449 5.29136 11.4878
410 2 1.72796 0.447659 11.2455
35 1 4.7354 4.79756 13.1365
298 2 3.38884 5.21176 12.3776
303 2 6.63342 4.85438 13.9879
132 1 2.38284 5.90076 11.3494
421 2 8.36815 2.4608 14.2909
310 2 1.44187 1.19927 14.5709
353 2 6.03933 5.01276 17.9492
125 1 8.20852 1.01722 14.9508
2 1 2.99572 3.5671 15.303
184 2 8.30208 0.328955 16.5018
194 2 3.09166 1.33359 18.7492
400 2 9.21134 5.49914 14.9887
166 2 5.18892 0.485985 17.2392
120 1 3.43304 0.624235 17.1855
199 2 3.10716 2.1149 16.089
428 2 3.91099 5.03463 16.0486
234 2 1.62429 4.39523 14.4683
393 2 0.778167 3.00669 18.1165
57 1 4.35351 4.84928 17.64
369 2 3.0889 4.53856 18.5512
48 1 0.60345 2.51514 14.5843
420 2 5.27787 6.57966 0.185608
297 2 5.13618 10.6131 3.03439
174 2 2.81377 10.9014 2.3542
3 1 6.58178 10.1895 3.02919
156 2 0.307268 11.52 2.12602
364 2 8.00138 7.65768 3.46648
67 1 1.79708 12.0691 1.36246
189 2 2.32137 7.62107 0.386483
241 2 3.62841 6.53676 1.91204
40 1 3.7729 10.6795 3.83825
172 2 9.4792 9.92777 1.17802
326 2 2.04548 11.1432 -0.236729
352 2 5.01703 12.3271 -0.119088
380 2 0.0774258 8.92233 3.25769
69 1 9.24664 8.49278 2.18529