LAMMPS data file via write_data, version 29 Oct 2020, timestep = 32000000

450 atoms
2 atom types

-0.10849359904355538 18.83391874919496 xlo xhi
-0.10849359904355538 18.83391874919496 ylo yhi
-0.10849359904355538 18.83391874919496 zlo zhi

Masses

1 28.084
2 15.999

Atoms # charge

128 1 0.4 2.5926131385542694 1.5785553379346433 3.200414386736317 -13 3 -5
214 2 -0.2 0.933341708834998 1.8589211327203852 3.3603762483604283 -9 11 14
230 2 -0.2 2.94212014776326 0.8833028485575839 4.712734688482597 1 8 -3
197 2 -0.2 3.6125901776489653 2.8574572522466157 3.1453084495531973 -3 10 -5
252 2 -0.2 2.974884319559665 0.5803255683369987 1.9754225614959555 -1 -4 -9
155 2 -0.2 0.5203224795149342 2.882366913551593 1.1148309183695237 9 -1 1
149 1 0.4 5.087054719165918 3.5170159452599634 2.821431741233044 6 -8 6
260 2 -0.2 5.4903194460197176 3.711190868177309 1.2269857769220216 1 -6 -10
447 2 -0.2 8.754154453632314 3.0082044600429554 2.9558350301409444 -16 3 9
143 1 0.4 7.718069768650954 1.8757035089159426 3.6157150124111257 -10 -7 -3
350 2 -0.2 6.146743282321886 2.242743642101377 3.3292126579921795 -1 -1 -6
434 2 -0.2 7.631376592401377 2.0067634545050894 5.21994371178936 6 3 5
300 2 -0.2 8.049101385819014 0.3520722015723489 3.2226979441766095 -14 -14 3
55 1 0.4 9.19815052083426 4.448251927600982 2.24917719514156 0 5 1
429 2 -0.2 5.312909231494213 4.727099164895907 3.847094668781356 0 7 6
159 2 -0.2 8.485367530892386 4.602915355239504 0.7705944181298929 -1 5 -1
209 2 -0.2 1.804634236555235 4.8108111340398425 5.027906124045818 2 3 2
185 2 -0.2 3.6299582920857105 5.099815271716926 0.4240055247483059 -3 -1 -13
17 1 0.4 1.0795845335837377 5.781962171291325 3.815182245278286 3 9 -5
333 2 -0.2 2.059831515563032 6.077210021508776 2.5365049322550743 -12 5 -1
19 1 0.4 3.0547819831480423 6.425160334727488 1.2487698592693737 4 -1 7
222 2 -0.2 3.5651335743153942 8.542457763318458 4.923116580893246 -7 5 -11
315 2 -0.2 0.5390355552836517 7.142025191886206 4.711456503882777 8 -10 -2
298 2 -0.2 4.447590162704464 7.246124686525021 1.7470967152037415 12 -4 7
276 2 -0.2 2.318568898387526 7.364119130440667 0.11437792744293662 4 3 -7
397 2 -0.2 5.359369312354773 16.040224197298777 0.013681279621904963 4 -15 -6
268 2 -0.2 8.901498706831818 7.745703983620274 4.987665410025316 0 -1 -3
49 1 0.4 5.56101044077869 5.1409689779949215 5.449644058761557 -6 0 6
1 1 0.4 7.8955814694992945 6.865626315416516 4.016616870850085 1 1 1
406 2 -0.2 6.8232697486527085 7.617900483368958 2.9896548620352297 -6 0 1
86 1 0.4 5.889052141860143 8.13828420909512 1.800945719014344 1 -4 3
211 2 -0.2 6.945295044357189 6.024114215422406 5.095657849087704 2 -2 -2
286 2 -0.2 8.746247646101313 5.748049192205015 3.1335460730913907 3 -3 1
272 2 -0.2 6.546676173129706 7.873636621747442 0.2807501274135421 -9 4 17
53 1 0.4 3.511459957383435 10.160020575449852 4.469813143797949 15 -10 4
324 2 -0.2 2.8859159802417875 10.396955754471017 2.9644872197515575 10 4 11
66 1 0.4 1.6978668680180198 10.943829228751797 1.9436698165525543 1 -7 13
280 2 -0.2 1.5792416952489987 12.623644290976538 2.0294832148867528 9 -1 2
376 2 -0.2 0.2670642386084409 10.157043328421038 2.27610766010699 1 2 -17
160 2 -0.2 2.109861558577427 10.781187921656173 0.350217955439681 13 -2 -6
370 2 -0.2 2.302784179676886 10.720863199690989 5.566557335523181 -10 0 -2
10 1 0.4 1.4418890004900078 14.048755508061008 1.1649424921986058 2 11 7
328 2 -0.2 0.12706757174292452 13.875919432311347 0.10759904004411133 -2 11 -4
220 2 -0.2 4.84452862592741 10.937796721047544 5.03533325843221 -2 17 -1
95 1 0.4 9.328609391586813 10.975795412646038 1.3693570910789425 0 3 5
356 2 -0.2 5.59972252494592 9.7233372617266 1.9220690833718228 7 1 7
106 1 0.4 6.04212660662019 11.281509365510194 1.3684886468465072 4 -8 14
47 1 0.4 5.729378289079439 12.098642939186599 5.786785544541013 -10 5 2
366 2 -0.2 5.410267406967303 12.563817373040779 2.105947974561237 -12 -6 16
244 2 -0.2 5.7218159136665125 13.347767522001938 4.702521407961905 4 10 -14
395 2 -0.2 7.654546882110643 11.253775337632959 1.4402240540471762 21 6 -4
111 1 0.4 5.6914620453977545 13.866995417257677 3.1084630173826504 7 -9 -2
30 1 0.4 2.8764486595102174 18.81891559276169 0.47726712026850904 2 -3 13
292 2 -0.2 -0.004580253064308232 17.277767031826166 2.9915159346798417 -1 2 -3
342 2 -0.2 1.108562538576802 15.7738203764353 5.119637870373342 -23 3 5
32 1 0.4 1.2437423138195485 16.28087222543379 3.5173081463404157 -5 -2 -3
307 2 -0.2 1.2448876874604013 15.215936857249153 2.2376604318992794 8 3 -15
152 2 -0.2 2.806246862653529 16.985829213890803 3.5900211332688547 3 3 13
87 1 0.4 4.442512728130206 16.66899032587457 3.8547589238254663 9 -24 0
405 2 -0.2 2.8145072167526446 14.539436549635852 0.3487832605418713 -1 1 -4
180 2 -0.2 3.0591359959376043 17.2007692804549 0.11976043488042595 -9 0 22
18 1 0.4 7.443956617132481 17.810119370986747 2.9196855913919793 3 2 9
118 1 0.4 8.812420033618675 14.977145852335084 2.9530443344167625 10 12 14
427 2 -0.2 7.042789858533454 17.603882923438757 1.2874507390657752 5 3 -13
176 2 -0.2 4.69446643811943 16.16574917910159 5.402272924884105 4 -2 12
322 2 -0.2 5.874276446940402 17.501861566295442 3.542244082197111 -6 -1 2
206 2 -0.2 7.320362729997473 14.35323859948159 2.867052000748399 -4 2 13
271 2 -0.2 4.768519974324017 15.227047732212602 3.062745577820655 13 7 -1
436 2 -0.2 8.458150602205423 16.52629613109371 3.428327997774314 -7 5 -2
8 1 0.4 2.1540922346869182 0.8582951996039202 6.166540476673701 1 3 -2
386 2 -0.2 0.7923193712021654 -0.10273327776691943 6.124443363575087 7 -4 15
337 2 -0.2 1.5586511469090407 13.200843034467177 6.117927391588897 27 -17 6
438 2 -0.2 4.536633548536415 6.260931683239169 6.044293765286906 17 -4 0
410 2 -0.2 1.8190199739426305 3.670211162433752 10.354953258706992 2 4 -10
90 1 0.4 0.9021590906589665 2.602410346328846 11.278156003014674 3 4 1
85 1 0.4 2.982637091070078 4.382626360652815 9.362016847207272 -14 -6 -4
77 1 0.4 1.4360497781097818 4.070163767272701 6.5112708395368895 -11 2 10
265 2 -0.2 2.3233786160788608 4.37262320303979 7.840490157503251 15 3 0
414 2 -0.2 3.176226370933834 0.3501398042489384 7.440269846067031 10 -16 11
303 2 -0.2 1.7121424200100601 2.419380434577821 6.332566973238136 -3 -3 -1
264 2 -0.2 5.841037947440069 14.517676961959115 11.838883621724108 5 -18 0
432 2 -0.2 4.363682593562813 3.5805029043500802 9.478947382029213 8 -14 -4
430 2 -0.2 5.362494550322706 17.688488745561276 11.19734745460704 8 2 4
134 1 0.4 4.7968693530728475 0.23218114789365113 7.925760237999137 -5 -4 -10
249 2 -0.2 7.589713395431663 2.414340605509836 7.919152357660137 2 7 2
14 1 0.4 8.648486054261562 3.6116623815900795 8.534324753511335 -5 -5 20
351 2 -0.2 5.526188976908097 1.1680409986838658 6.817978530982914 5 -9 0
175 2 -0.2 5.570507463271762 0.4546738492221155 9.366893095646656 3 -7 -3
131 1 0.4 6.680952865408251 2.316435787442523 6.504599843504065 -4 10 -1
195 2 -0.2 6.2655067566242515 1.2382973040804062 11.960877787440479 6 6 -7
108 1 0.4 6.327284266207274 0.10169582059933871 10.815721564467022 9 -2 11
331 2 -0.2 5.835507770098496 3.7542105413026237 6.32102253646247 -5 -1 -8
154 2 -0.2 7.3295195156126125 16.367537916463075 6.30915151192129 10 -4 -4
290 2 -0.2 3.0521047372082846 5.884734413003473 10.131482680297534 -12 -5 -3
135 1 0.4 1.0074452432676682 7.832949884647252 8.19705710636305 12 10 -4
352 2 -0.2 2.2935068369913356 7.493623795441398 7.182456817558012 -12 -19 -10
27 1 0.4 3.569372879493289 7.230394166735482 11.055420144384785 15 0 -4
165 2 -0.2 2.2820322927610373 7.912538134059901 11.805288539005447 -8 0 2
237 2 -0.2 4.173996132399711 8.41212031130741 10.016356707217152 6 0 -8
313 2 -0.2 1.1326848279035353 9.021299143893723 9.304215914454494 12 11 0
123 1 0.4 3.7249040190621154 7.723221237307078 6.326138447710445 -5 1 -7
398 2 -0.2 8.695918454834871 16.971707443884092 8.518823173870555 -11 -4 -3
177 2 -0.2 0.2212051911505148 6.457804441565687 8.814990067690182 -9 13 -9
368 2 -0.2 4.6491962883827735 6.490721265908464 12.065631676129712 4 -4 -7
400 2 -0.2 4.601130782035347 8.53018862016229 7.411251722856512 0 -8 9
223 2 -0.2 8.992065438285461 6.841315699099262 10.390560664801573 13 0 1
296 2 -0.2 8.632069252168877 7.432792740540863 7.751311829398356 2 7 3
274 2 -0.2 7.855255761031013 5.045388244113265 8.837899672367948 -10 8 -11
146 1 0.4 5.324115251834047 8.610794560267808 8.864222241066733 2 -1 8
242 2 -0.2 6.528598992739269 7.485031438897491 9.02197214778351 -20 0 -8
97 1 0.4 7.951573467476413 6.652394832784328 9.05456957110965 4 2 10
329 2 -0.2 0.05162497628325724 8.433101924960264 6.985914488241574 2 -5 5
68 1 0.4 1.4913687134834046 11.590207090125645 6.669546178684238 -1 2 -7
294 2 -0.2 2.018707875644606 11.376275572215688 8.187184589371316 6 4 -9
144 1 0.4 1.5271279838352105 10.648955936035652 9.6321331533329 -6 -9 -4
215 2 -0.2 2.553572719181141 11.03167444033347 10.957791749844306 -6 14 -4
235 2 -0.2 3.6307754580172347 13.032539002502743 12.107462606150222 15 7 9
41 1 0.4 3.4060875748435073 11.359857253483325 12.319260072816547 -2 -5 4
341 2 -0.2 0.045349924355935656 6.901279630167635 11.364502553130423 9 10 -2
231 2 -0.2 0.043883323809326025 11.530340969880614 9.67167910409353 -9 2 9
190 2 -0.2 9.008458137959972 9.850514778538411 6.634048443362731 -6 -4 -3
428 2 -0.2 4.8801819677192855 12.62313315457018 7.150007307967633 -4 1 -7
3 1 0.4 4.9769705723335464 13.50755573607922 8.53378829082594 -3 -10 -4
301 2 -0.2 5.805673246635043 10.12894025469019 9.214043603870033 -14 10 3
304 2 -0.2 7.347909587521511 11.207819415419072 11.336163851750875 -1 -5 -5
42 1 0.4 6.864013800886621 11.357527061137146 9.756700948204001 -1 -7 7
450 2 -0.2 5.861600781502085 12.575976074945768 9.577159356540994 9 -10 4
316 2 -0.2 8.145517198604123 11.545792224310574 8.724170940005019 6 -6 1
21 1 0.4 8.6348770279846 11.43469233238916 7.050237974014893 -7 4 -5
345 2 -0.2 8.190124082547714 15.660434358815122 10.85197321042345 -2 12 2
58 1 0.4 5.738524480714244 16.159362202409188 6.79619469031749 5 -9 -6
312 2 -0.2 -0.08800955171593827 1.5298597768454407 10.443260055749331 8 0 2
437 2 -0.2 3.692357956697684 14.18690363482894 9.303216906433454 -3 7 -1
35 1 0.4 8.78104109815847 17.025997482023616 10.172320800176207 -2 -1 2
126 1 0.4 2.586054682430427 15.441532738053093 9.123695941030988 -10 2 -5
273 2 -0.2 1.3795464522322332 15.211031876976945 10.186863219445122 -2 4 -2
327 2 -0.2 3.3699271509860136 16.74266102818769 9.752194283462412 4 0 1
79 1 0.4 3.797872047153527 17.226751156726785 11.269676050972652 -2 5 -4
444 2 -0.2 1.7522977884686781 15.53979548596227 7.686431238392038 -6 7 -4
282 2 -0.2 3.6288491480845972 15.829117036245473 12.091252556140404 -12 13 6
359 2 -0.2 3.032873969012452 18.657966643282784 11.757738478306905 8 -5 -1
56 1 0.4 1.1040415682475146 14.743272829677705 6.364830529014541 5 10 -2
266 2 -0.2 5.7235208384744 14.911449419423658 7.847919353959643 11 -2 18
283 2 -0.2 7.8260276137737925 18.384560403560577 10.664453412367134 1 -12 -1
441 2 -0.2 5.2249391451767515 17.54971209955847 7.59393891799736 -7 7 -4
122 1 0.4 8.883100167107768 16.713535636487467 6.835554905941123 -4 13 4
140 1 0.4 7.466200543137392 14.8694002608261 12.064796960282724 1 -7 5
378 2 -0.2 1.892773609146798 1.9354773192423664 12.40872012805687 0 6 0
256 2 -0.2 7.30067649792726 11.876538688009568 6.239898483005413 -10 -1 13
409 2 -0.2 2.947667697693605 1.8781417192651662 16.25141226591152 9 5 12
51 1 0.4 1.5860090682752659 2.846528294081301 16.07923635156393 4 5 2
433 2 -0.2 1.3210945295033174 3.6536814069898873 17.600311573756844 11 11 -9
83 1 0.4 2.6625628703561386 0.6006932459900981 13.082768745298031 2 -12 -6
277 2 -0.2 4.168807859462629 1.37522143216073 13.493763432455042 4 -9 -2
257 2 -0.2 1.9180799279519154 4.169347539323885 15.111980908428139 0 7 -17
355 2 -0.2 3.949494078520978 0.646500394586776 18.369687976227127 -8 -7 3
20 1 0.4 4.3231233494956385 1.6874526979600992 17.11214611610148 0 -3 5
217 2 -0.2 0.16540810069321332 2.0215958896100252 15.962095998310453 9 4 -5
178 2 -0.2 1.3329627157167871 0.14023983586009908 18.7776140775492 3 5 8
7 1 0.4 0.060124564590083446 3.773334111483252 18.622704380835142 -3 -7 -2
166 2 -0.2 4.648247259948713 3.1737137726242306 17.719046449140688 3 0 -3
404 2 -0.2 8.157264966607611 3.921800738815196 16.771661602778366 -6 3 15
349 2 -0.2 5.577615691309913 0.9832356114219141 16.3573931277156 3 -14 4
339 2 -0.2 6.801098921829073 2.723009907075633 14.32514876185391 1 8 -5
60 1 0.4 8.140758884148095 3.0355907189002758 15.340198075209484 -5 -3 -5
255 2 -0.2 8.204200995643472 1.3711716877061242 15.930065447912177 -5 5 -2
75 1 0.4 5.584333838458905 2.248418663656577 13.170791903769688 6 8 4
132 1 0.4 7.042757182121073 0.2242581324575379 16.308420909667905 -1 -11 -1
48 1 0.4 9.055558363320255 4.015281123051083 18.19495781542227 0 8 -8
258 2 -0.2 9.295323432443832 3.80996639223547 14.464768394926743 -7 7 2
251 2 -0.2 5.098006574285448 3.802182390942634 12.779252816339822 3 12 4
169 2 -0.2 8.177196697232649 13.388417931949972 12.557374289872751 2 4 -10
413 2 -0.2 0.059722105613535664 8.963233170679093 13.227589427470992 1 -7 -7
346 2 -0.2 1.3453510750598092 6.735938956064448 13.776599615928092 -2 10 3
33 1 0.4 2.2034919667161335 5.7309549300001095 14.92366197870988 -8 11 -8
119 1 0.4 2.856136086736895 7.6819407771798955 17.447846290505026 -10 2 9
157 2 -0.2 2.2917928653998962 6.651137756060299 16.32113027986405 -5 -2 4
385 2 -0.2 3.7986958994270803 5.60589130553188 14.363587252107717 3 0 6
439 2 -0.2 4.534135137526501 7.621815345375262 17.516815948399966 4 5 6
233 2 -0.2 8.030128265465097 15.846795030517546 18.265682164677504 -1 -12 -3
250 2 -0.2 2.3185473222195294 9.192613399966874 17.123777834483587 -9 -14 -2
369 2 -0.2 6.001498789732052 5.544830259637612 18.221684016735807 -3 9 10
112 1 0.4 5.075522587601162 5.390111573341144 13.276163448540506 -1 -11 -2
408 2 -0.2 8.780448729046066 7.391931147104636 14.641618009145324 -6 -11 1
426 2 -0.2 6.953184225355857 7.2374313694272905 16.35171824967193 -8 -7 14
228 2 -0.2 6.477043122527267 5.892199275144051 14.026986186559474 -7 12 -2
13 1 0.4 7.11053825099314 7.233858620859099 14.69275250766043 5 -4 -2
29 1 0.4 6.161533450593628 7.132459868419846 17.794853380117704 -6 2 8
203 2 -0.2 6.4484220949131 8.696033545004795 14.269175666564388 0 -18 0
261 2 -0.2 0.08878986517735155 11.28025990444567 14.721901926269338 -29 -8 3
6 1 0.4 1.6883976173542345 10.576982797350508 17.735888032833266 -5 7 -15
340 2 -0.2 2.552219325636959 11.416839052858661 13.771802629975324 4 7 5
54 1 0.4 1.5836875131652912 12.042524532998506 14.956731225022397 7 -1 -6
421 2 -0.2 1.9849049285689264 11.665959292760283 16.54272977914734 7 -18 -9
418 2 -0.2 1.1750264335534766 13.599440405933422 14.620838900673787 2 -7 5
347 2 -0.2 0.022234497345391402 10.272282814218144 17.747072755431272 2 11 -2
377 2 -0.2 4.584481957128334 10.29206765900403 12.969660933197252 -8 4 2
389 2 -0.2 9.322890695147699 9.602822551611224 16.277941629265236 -9 0 -7
142 1 0.4 9.150481252078475 11.105721585908693 16.94851125581833 -4 -5 -1
172 2 -0.2 5.293003493600463 13.032152668602901 16.65681399816041 3 5 -10
443 2 -0.2 6.818006292988057 11.240768015237864 13.87603301844429 11 -8 14
114 1 0.4 5.876703703246235 11.513935511002973 17.033171526178172 3 -11 -7
392 2 -0.2 5.3381448582983 10.456783030729177 15.915189313827515 -10 2 9
161 2 -0.2 7.585925102920143 11.547855503582628 16.857051257879284 -2 -9 -19
102 1 0.4 5.6458925672564035 10.115175748205472 14.259198786987088 -8 -17 6
198 2 -0.2 5.663672355086229 11.137360935388084 18.6563085790641 3 7 -4
73 1 0.4 7.952198359576126 11.75861340855761 12.80086480753267 -14 7 -2
288 2 -0.2 1.703526956031812 18.684046729889026 14.04355791375252 5 -5 -9
196 2 -0.2 0.5970748307512785 17.624608804215587 16.55303148483566 7 3 9
31 1 0.4 3.7372040345619646 15.713555094896995 18.565796352586275 -6 -7 -8
2 1 0.4 0.662326350581216 17.613754444293242 14.870660155215418 -1 -1 8
193 2 -0.2 3.9658755233560266 15.401880012812828 16.963351683598518 6 6 -4
168 2 -0.2 0.5445618097681635 15.999277208621404 14.352315502488173 17 -1 -8
9 1 0.4 0.01844919909609466 14.509058645805567 13.890848894408894 -2 -6 3
93 1 0.4 0.07187423926288661 18.2235471039846 18.049310423537047 -9 2 5
321 2 -0.2 4.539435901166814 14.246004385993967 14.325420711458756 5 7 -4
26 1 0.4 4.3420655399027215 14.43848716897182 12.657627349989763 -2 3 -4
442 2 -0.2 6.459777743519158 15.392402597936211 15.833553782928549 13 -3 7
57 1 0.4 6.746016115850868 16.939086945703377 18.68570253668526 -2 -5 8
94 1 0.4 5.020419394835209 14.540710806879765 15.962396865917295 8 -6 -7
125 1 0.4 7.586124310268072 16.334826931934327 14.977483733431018 1 -4 1
310 2 -0.2 7.0906479225059496 18.263073560143887 17.729882303166303 -8 5 12
232 2 -0.2 9.2334481644738 16.173988697862367 15.07369552292678 -11 -13 -5
192 2 -0.2 7.302599714872655 17.94589317389029 15.205366808490526 -5 3 8
449 2 -0.2 7.383292358293299 15.89515943654306 13.33420369860961 11 0 13
100 1 0.4 4.979514107633374 4.3661555241425285 18.76898926124546 12 5 -7
22 1 0.4 0.8602277321492251 7.695501508881049 12.543872761818182 6 0 -1
293 2 -0.2 13.240974380712588 2.7577203295677157 3.126178633038392 10 8 7
309 2 -0.2 10.95143386556244 0.4629784841030741 1.4845920259117145 -5 3 8
399 2 -0.2 11.543735311693018 3.85521363533475 4.929148034093151 15 2 5
64 1 0.4 12.199602602715723 4.069388691002062 3.4014446063628876 -7 -3 2
348 2 -0.2 13.347255943477073 0.19469421869201015 2.499297793607524 3 2 -2
336 2 -0.2 10.871517646457042 4.367093336186844 2.3994613046775903 -1 13 -12
23 1 0.4 10.932200309996029 0.08155236570001495 5.77307817339555 -1 -4 -6
314 2 -0.2 12.427689296907895 2.404551834577964 0.1700835577477257 -1 12 -9
11 1 0.4 10.951047211776883 1.4566436644836396 0.18058845520057581 4 -2 4
133 1 0.4 13.981374549318105 2.833604590160266 -0.011115027901407767 -8 11 -7
153 2 -0.2 14.14045334102345 4.432849745258879 0.46141476326608166 1 0 11
227 2 -0.2 10.74825310605179 1.7386330126539122 6.054415733751453 9 9 22
147 1 0.4 14.30204091815392 1.5153381276004831 2.671063300119768 -2 -4 -12
50 1 0.4 18.55051331149923 2.049978166445637 2.2777241121277023 -11 7 -7
200 2 -0.2 14.75524941542724 1.9306556615126862 1.0773363310555366 11 2 -1
364 2 -0.2 15.103888871023328 1.4143850972038114 4.1027692535185984 10 9 10
338 2 -0.2 17.3050226506047 3.057987101879095 2.641377702165622 -9 -14 8
204 2 -0.2 17.887445569899683 0.5590660879910863 1.8892744107619803 -3 -2 -11
15 1 0.4 15.470951025939765 1.0807992162884186 5.715803741209873 -14 5 7
234 2 -0.2 17.052360804753654 0.5989821253249398 5.666281278496424 10 -1 11
218 2 -0.2 12.974364615077542 5.545656579428985 3.2204384769566694 -1 8 -1
308 2 -0.2 12.00423814279712 7.991880709249532 3.0071462206554798 3 8 4
98 1 0.4 12.961776797198077 7.045445104683828 3.9117625750138165 -5 9 2
130 1 0.4 11.317957023265773 8.614653041987374 1.5656649473754467 22 -10 -6
267 2 -0.2 12.830528632244894 6.713769537868337 5.513568968372103 -3 6 0
275 2 -0.2 11.027712917139874 7.345018411019274 0.5609612720049434 3 -4 9
150 1 0.4 16.992487056009583 4.5202832047906965 3.378912111326858 8 9 -3
448 2 -0.2 16.64406743775779 4.371034178094447 5.024092376949741 -3 7 -3
170 2 -0.2 14.523858479863911 7.5350185135726955 3.569317782448727 -15 -4 4
225 2 -0.2 16.02843275612489 5.593368041352791 2.6411748085190707 12 -17 4
59 1 0.4 15.655164977361853 7.137581556899292 2.3530777054025074 8 -1 2
285 2 -0.2 16.980445308536 8.188220454221934 2.3304455682009793 -8 -1 -1
208 2 -0.2 14.647623786408857 6.951721819586002 1.0788491493181482 -7 13 -7
92 1 0.4 18.257192680679395 7.969505516140339 5.525215095324698 8 -12 5
295 2 -0.2 17.84945561553784 9.185331383413072 4.464600272397486 3 9 -7
371 2 -0.2 17.209110845201888 6.704998589886083 5.970385985871657 -6 2 2
311 2 -0.2 18.552406789430165 5.209379936323168 3.390478135053409 -2 7 -6
179 2 -0.2 9.923410890338674 9.413579361767274 1.832218596932248 -8 -9 -12
343 2 -0.2 12.411575829321723 9.71421175209624 0.8459297381723632 4 0 -4
207 2 -0.2 10.150891023433154 12.132850612224935 2.1604979015181707 -6 -6 6
184 2 -0.2 11.996730213346165 12.311962342579218 4.486888769011847 -10 2 3
61 1 0.4 11.103474207645561 12.993549744182745 3.2198464546650896 -1 5 2
12 1 0.4 12.960717744170163 12.583908020473357 5.819303961568782 11 2 2
39 1 0.4 13.10401954766862 11.061976187442495 0.11397797389334274 0 -13 -11
121 1 0.4 17.746640697758114 9.641828603497292 2.863814808963905 -15 5 2
425 2 -0.2 14.344669004676408 13.349246943077135 5.224483146940899 -7 -1 8
415 2 -0.2 14.340627011676744 11.43845509427381 1.174443553262437 0 -3 8
245 2 -0.2 15.793205506269853 13.223055205688421 3.003060218767986 -10 4 0
96 1 0.4 15.85961133752956 12.039295392002394 1.7636477940030704 -3 4 -5
374 2 -0.2 16.59861487712289 10.75265782672287 2.5050469104278847 -6 -3 -2
210 2 -0.2 16.64955133198865 12.602899041454545 0.4230927971452423 0 -11 5
36 1 0.4 15.84687238668066 13.676364368637072 4.544648794660299 4 7 9
354 2 -0.2 16.809448224955425 12.57930096343653 5.354198504099178 3 16 1
219 2 -0.2 11.254639526034842 -0.0721177175902703 4.092138452300804 10 -7 2
305 2 -0.2 12.013836255494281 14.105776139695795 2.427723796433253 -8 3 -1
263 2 -0.2 9.886052750721296 14.124562063254963 3.893028219197591 -9 1 -2
107 1 0.4 11.783902576866039 18.569721502127106 2.5577540356295025 0 -6 0
387 2 -0.2 11.869544098862079 16.872603417527177 2.541058511232278 -5 4 -2
88 1 0.4 12.776062901379534 15.557671549533737 2.2816262604071333 8 1 -6
344 2 -0.2 9.412217960550684 15.135097134118697 1.36848888283868 7 10 1
194 2 -0.2 9.641816026040582 18.01852555438107 6.157772625585326 1 0 -4
221 2 -0.2 16.46313871279599 15.128655250177218 4.999580915777484 2 1 -7
422 2 -0.2 16.532418199337503 15.057067398303381 0.43838005308596417 2 13 14
43 1 0.4 15.517458278754177 16.36614169429569 0.6545691721169071 -4 2 8
360 2 -0.2 14.03152448704022 15.868607051963284 1.233026258359836 -4 6 2
183 2 -0.2 18.416589391266317 17.39247272103706 0.41337096288549924 5 -13 3
72 1 0.4 17.785869270103255 17.876307373043417 1.881395014441747 -7 0 -1
238 2 -0.2 16.21957969205939 17.258830408663012 1.909274160948185 -10 -17 1
120 1 0.4 10.968833322279043 2.9768120248752554 10.793900006097115 2 4 -1
419 2 -0.2 11.80110165974718 1.5369814799229387 10.49135693523612 -9 0 -15
103 1 0.4 13.261972899205428 0.6785328394353397 10.548197719910114 8 3 7
173 2 -0.2 12.366308545152176 3.6651809883025677 7.395017613484843 4 7 8
216 2 -0.2 13.520591956869069 0.34111062623257316 8.863843500987734 -8 -17 1
394 2 -0.2 12.007030552372761 4.0080330122199905 9.976655315613744 12 -1 -4
287 2 -0.2 10.79195115274294 3.4650487718164147 12.30499052481139 0 3 5
363 2 -0.2 9.755565395509082 3.898486810904334 7.235471554065334 -3 4 7
40 1 0.4 11.03248723215052 3.313302093046802 6.394116161498744 8 -1 1
248 2 -0.2 14.221466524224986 1.4452784849519487 11.61286779806813 -11 12 1
80 1 0.4 12.862955418424551 4.60128593806703 8.671399583412184 -4 -4 -1
191 2 -0.2 18.751382063164524 4.452276134685911 6.565325157221887 8 -1 -8
297 2 -0.2 14.597016504724367 18.768307974400262 6.368243249296126 -2 -6 2
379 2 -0.2 14.4055231629484 3.9207795573755444 9.064645464377202 -10 8 -3
353 2 -0.2 16.6251381184497 2.2587185950586575 9.3591724223641 9 3 6
137 1 0.4 15.671791721018733 3.157753187283672 8.325114124577409 11 4 -4
115 1 0.4 17.52242260276312 0.8924364212382296 9.678944392978005 11 6 1
367 2 -0.2 15.345663848442031 2.2340353837090707 6.86028935859148 13 -4 9
82 1 0.4 17.23786608720125 4.282600193102937 12.076706017737788 0 3 8
403 2 -0.2 17.79645016435538 0.199030461088752 8.170297185655212 2 -10 0
435 2 -0.2 18.69873463481917 3.572757517087786 11.990982569823336 -4 2 -6
424 2 -0.2 16.162193766146398 3.02242610609401 12.464055227283943 13 -4 -4
401 2 -0.2 14.481869124520008 11.529388330019595 12.357869788726813 11 -12 1
186 2 -0.2 12.786711667362479 6.187407874804336 8.162482003501328 16 -3 2
136 1 0.4 10.18277037028453 7.149913222388934 11.536465989226814 10 1 2
163 2 -0.2 11.764057049052424 6.985765048837671 11.177419269768343 6 9 -11
5 1 0.4 12.582857274968951 7.357857395560139 6.9506248220433156 -5 10 1
69 1 0.4 13.325809108908171 7.047287772389991 11.680851652045678 12 -3 -5
362 2 -0.2 11.05673886584245 7.978857847999167 6.747565673414429 2 -4 -5
411 2 -0.2 13.659390149856428 8.63370049845138 6.8688220657257375 -5 3 6
101 1 0.4 9.43902608306101 8.223770573500751 6.4841518776491975 -1 16 8
446 2 -0.2 10.23105966438258 8.783027638302539 11.83877770873464 6 4 3
396 2 -0.2 9.628461342421296 3.1555916072789905 9.820984668101449 -12 -6 0
182 2 -0.2 16.30914228863557 4.584652419669962 7.770956148417242 2 -3 0
330 2 -0.2 14.32744386670739 7.340314585128137 10.413432742861907 8 8 -1
402 2 -0.2 17.271227842081412 5.113418117867417 10.618006258373272 -1 -1 4
89 1 0.4 18.048450871682736 6.466125548477753 10.037656110779922 -3 17 6
299 2 -0.2 16.851507006170618 7.502423699197322 9.553805153360235 -2 9 -1
139 1 0.4 15.483066937930491 8.480818858778637 9.846099808991822 -5 -14 -2
24 1 0.4 17.191161277912542 5.032757292574423 6.402874428889809 -10 -7 -7
375 2 -0.2 13.546207400205915 11.303677188728042 6.780823989152469 -5 3 -3
291 2 -0.2 12.350852845093968 12.86316061279367 11.211396423463125 -3 2 0
243 2 -0.2 11.092676585488507 14.092332452941498 9.15125127842447 1 -2 -4
302 2 -0.2 12.0875559442536 13.63977767731756 6.721814111020769 -12 0 -7
25 1 0.4 10.617129801014034 13.965480544002652 7.577745773280019 -12 -8 -5
162 2 -0.2 18.749223185180007 14.496585736773314 12.221659909175385 11 -10 -3
84 1 0.4 12.35870256913296 14.165914655002387 10.16781214293868 -9 4 11
270 2 -0.2 9.877083254334858 12.559611246625288 7.109966860512094 9 14 -8
240 2 -0.2 15.873364793311724 9.470241752380442 11.134138781407968 -6 -13 -6
325 2 -0.2 14.896288398855335 9.564799955387784 8.774482090697052 -8 5 -21
91 1 0.4 14.496897098798847 9.965793751472685 7.226916926585465 -4 -1 -5
381 2 -0.2 16.800673251306975 12.155988663050367 8.111923320975917 4 3 -6
141 1 0.4 17.598699254838838 12.412817487438 9.557903740698537 -5 -3 0
323 2 -0.2 16.59125445514084 11.936562506136944 10.733642944291043 -8 -3 -5
37 1 0.4 17.127038053417944 11.473127731946468 6.504326843289375 5 -3 -9
71 1 0.4 15.972503819496037 11.003212123957645 11.892563808545567 4 3 2
326 2 -0.2 15.955547133758067 10.243438845666292 6.428460569862655 -1 1 -15
281 2 -0.2 17.86502849188717 13.972360499648863 9.888907442044824 -7 -9 2
247 2 -0.2 12.016293349783345 18.343689103403122 6.746810841771483 -2 -7 8
420 2 -0.2 9.754392793629487 15.26633695303808 6.954408726123948 0 13 14
393 2 -0.2 10.314809972193233 17.30749878795084 10.594673690556316 0 -8 -2
113 1 0.4 11.64663003220609 17.017334369539558 11.484418325614584 7 8 -1
306 2 -0.2 12.347222943678918 15.618918853135272 10.895037312815969 -11 5 1
28 1 0.4 13.481712487800804 18.311020481834998 7.51878978471523 5 6 4
253 2 -0.2 12.820547671574548 18.17600559695635 11.201087265295875 4 1 -10
357 2 -0.2 13.849961006372856 14.24276977805112 9.33731189616857 -18 14 0
188 2 -0.2 13.921955228993488 16.805225268913514 7.995317853671917 -7 -7 20
105 1 0.4 14.656047777547544 15.492755143267791 8.729265005157709 7 -1 -2
34 1 0.4 18.130560457972944 18.661520030066566 6.6220713831720825 0 0 3
229 2 -0.2 15.465056078630788 16.221610277015063 10.036013198450304 -9 -14 -1
65 1 0.4 17.02205933821209 15.533030648797872 6.538567519856866 -3 -6 -5
416 2 -0.2 17.974568197897717 16.507638371848895 10.62790194576163 2 7 -9
262 2 -0.2 16.57671123251656 18.71807707029632 10.496464416671156 -5 0 1
78 1 0.4 16.44284460031042 17.124490785737812 10.992955947578583 -10 -4 13
181 2 -0.2 15.88784224685361 15.046905953201952 7.643179480180055 -15 15 6
412 2 -0.2 17.502763647136774 17.113733612279816 6.568200838682046 5 1 4
254 2 -0.2 18.401247483462345 14.650818691458351 6.775813094013304 20 3 -11
171 2 -0.2 18.75642492200072 11.245519337122532 6.593257717117292 -2 2 -8
67 1 0.4 18.779106449212527 15.056608593365622 10.708352678382775 1 9 -11
189 2 -0.2 11.310087786234698 0.34114687793764986 18.00898881742898 -6 1 -2
212 2 -0.2 9.700017022143145 2.5454512465621413 18.69110338955018 3 -13 -20
46 1 0.4 10.479297429611703 4.533460635094396 13.625818954432889 -13 1 -5
320 2 -0.2 14.231270231048379 2.4230770994118793 14.32319732921987 14 -11 7
440 2 -0.2 14.174446254960676 3.0666464888143077 17.24434744312131 7 3 -3
278 2 -0.2 14.489054802692133 0.5977354496353282 16.601573618628183 -18 -2 -4
16 1 0.4 14.647815909682848 2.1382236651147166 15.914901586018487 7 -3 4
45 1 0.4 17.609664833241936 1.755575123604874 16.750924404863706 -5 4 -4
417 2 -0.2 16.275575206628712 2.2629936911938997 16.0392399343717 8 -7 10
205 2 -0.2 15.908712559674456 0.5200672208486166 13.707870787717649 -13 -7 -10
445 2 -0.2 17.805869158444036 2.9158720812819 17.976191249903763 -2 11 3
334 2 -0.2 17.775024706992287 0.3422545744539704 17.572135706849338 -1 2 -4
104 1 0.4 15.120873597176073 1.8876319799106775 12.974129535976743 -5 6 -4
335 2 -0.2 11.883835123885499 4.792234409113785 14.556766633302583 -8 5 13
383 2 -0.2 13.610811766103627 5.739345911668139 12.70452924031174 -9 2 5
318 2 -0.2 10.262515403924477 5.158864232190222 17.906446276664 5 -3 -4
127 1 0.4 13.403389046015818 5.502939236075157 14.46377523567351 -4 -1 -7
279 2 -0.2 10.60424867166378 7.386985295483285 16.748168393595385 14 -12 -7
44 1 0.4 11.235418320520793 6.505378828132939 18.027453088820153 4 3 -13
246 2 -0.2 13.278531784419123 7.117317698545599 14.983113915952726 -1 -2 -2
116 1 0.4 9.923887028529519 8.256661744926328 15.554813845691676 8 0 -1
202 2 -0.2 12.876470862911884 6.252570460654819 17.876303953969902 15 -3 0
269 2 -0.2 13.8342402842912 8.287976989947923 12.736652494395083 3 4 -4
224 2 -0.2 10.049444608386823 5.906695567461726 12.801648477605358 -6 -3 0
70 1 0.4 14.233368393382452 8.36248613383096 14.34957503576305 16 15 3
388 2 -0.2 14.930933325081538 5.058810103321012 15.071573208807203 -10 2 1
187 2 -0.2 16.994445256963058 5.344733923198533 13.363603695884152 -2 6 -11
164 2 -0.2 15.690641714530962 7.423757386561997 14.480529237842386 -8 -9 1