LAMMPS data file via write_data, version 29 Oct 2020, timestep = 200000

450 atoms
2 atom types

-0.4265261123961075 19.151951262545488 xlo xhi
-0.4265261123961075 19.151951262545488 ylo yhi
-0.4265261123961075 19.151951262545488 zlo zhi

Masses

1 28.084
2 15.999

Atoms # charge

78 1 0.4 3.312721465597824 2.8746735515333675 5.158319851975056 -1 -3 0
379 2 -0.2 5.712618415067372 1.7373758329445756 6.044696693691974 -2 1 1
255 2 -0.2 17.482093720787223 17.77133240048035 0.9471895234307379 2 0 0
170 2 -0.2 3.215306886333824 2.5418485399048993 3.455922606095398 -4 -2 -2
120 1 0.4 2.417060882464726 3.0097262566487464 1.7182764534141488 2 2 0
272 2 -0.2 2.0071822164969566 4.534270064079867 1.669379591288695 -2 1 2
226 2 -0.2 11.660231943680351 11.124864354502412 7.0281117279499234 2 -1 -5
134 1 0.4 3.6088622528420053 5.3367225072964235 1.8806919809704912 0 2 4
252 2 -0.2 2.5273300181756406 3.21265670862823 6.6283037135587035 -2 -1 -3
242 2 -0.2 0.6869389389021094 2.266856241402039 1.510891545996492 5 3 2
203 2 -0.2 3.591365604022103 4.615333152052037 4.688538340515245 -1 2 4
309 2 -0.2 14.707283823138004 15.049602681166164 7.628701005236508 2 2 4
95 1 0.4 9.109859918618847 -0.15431182231159202 7.800625266360274 0 4 1
234 2 -0.2 3.136432095067838 1.784356419772363 0.9216375643625274 -1 0 2
276 2 -0.2 7.554395249454008 0.9626094851411238 4.274138837489607 1 0 2
57 1 0.4 6.830198044704193 0.3771819730114955 5.693490296548179 -4 -2 -3
177 2 -0.2 4.6068545500622875 4.1388644726036095 1.941833593445605 -2 1 3
403 2 -0.2 8.728354550292183 0.5891330602739411 6.496273346633122 1 0 -5
133 1 0.4 1.4016427538745446 3.693161607981205 7.781082347911182 7 2 3
341 2 -0.2 3.079547673417766 6.684926396212347 2.187400621142496 1 4 -2
257 2 -0.2 4.794609590517701 5.807604429322978 7.021695257011002 5 0 1
268 2 -0.2 6.22465135758864 0.21785775821885456 7.445946700642655 -1 -1 -3
215 2 -0.2 13.75376630487412 2.932433107336457 6.76590570581802 0 2 -2
247 2 -0.2 6.966970926684123 3.3470168501027744 2.336296523230357 0 1 3
232 2 -0.2 14.509766861411851 9.057229316694919 0.37061480565507654 -5 -3 1
118 1 0.4 5.505711460787905 2.4899654423436384 1.5140518032272912 -4 -2 0
200 2 -0.2 5.975570315636653 0.55311999963513 1.7229239747038254 1 0 0
74 1 0.4 12.013604432793016 3.7496773187942987 5.995288272376881 4 -3 1
28 1 0.4 2.071978459255239 0.5312712396306463 0.3886545466547272 0 -1 -3
443 2 -0.2 9.922663461626993 0.019619548116820318 4.232812110073857 2 -2 -2
319 2 -0.2 8.341053353562646 4.039476186299446 5.338034994944734 3 1 -3
339 2 -0.2 11.070197263368954 2.5509259152806623 5.435929426974812 3 3 -4
73 1 0.4 8.445905502355584 5.546446599649724 5.898340328338143 -3 2 2
53 1 0.4 7.275060484035076 19.09261900048684 2.542586053704066 0 -2 5
238 2 -0.2 9.501223641816882 2.6671967046578846 2.9293477329098225 -1 0 3
108 1 0.4 9.401262649058546 1.629925240678928 4.646541118125724 -1 -2 1
113 1 0.4 8.929633231062198 3.8745602239297723 2.0205394165059882 1 -1 1
402 2 -0.2 9.582848980532303 4.354961103469377 0.4452219700600277 0 3 2
38 1 0.4 14.692284876695442 0.4698765265135836 -0.2643988499415525 -2 -2 -1
236 2 -0.2 11.897418129855073 18.438303033589104 2.2499506853952647 -2 -2 -4
135 1 0.4 11.344777690554714 0.3220488531359653 0.9691756288695461 1 -1 -1
297 2 -0.2 13.192545629921835 -0.13098319582805928 0.6666168836561708 2 -4 1
260 2 -0.2 9.15879921884185 5.499361981785434 7.486813655697882 -3 1 -3
439 2 -0.2 8.70802888346012 18.942081330467154 1.5993158170544866 -2 0 -1
182 2 -0.2 6.557589843258736 18.516273407776247 3.806260679275333 2 1 0
4 1 0.4 8.60593177562027 17.793578711739197 0.15942137003194112 0 1 2
256 2 -0.2 -0.29317258162335014 1.2884972240253971 5.994412791738911 2 0 1
290 2 -0.2 11.697122335709278 5.382189628847045 6.089574069789257 4 0 2
414 2 -0.2 16.653187409843774 2.8963922981682377 6.133951798940867 0 -1 0
5 1 0.4 18.94511998437663 1.947378156703631 2.554310654109419 -1 -1 -2
348 2 -0.2 18.3815824150315 4.3357723327024935 5.400327530222631 0 2 -1
119 1 0.4 16.51455049602823 2.320908916472496 1.2631239650294188 0 0 2
137 1 0.4 18.399427859516607 2.687484210849483 6.231109296366511 5 2 -2
409 2 -0.2 16.310579709038432 5.594118363266537 2.9664748408436785 -3 -2 1
139 1 0.4 18.074368362203437 4.798873006897727 3.7984657223264104 1 -5 -2
277 2 -0.2 15.904181773699754 1.9904626972782533 3.1418715906673595 -4 1 -1
165 2 -0.2 17.893550465325323 1.6702965753306045 1.5340038045533853 -2 2 3
432 2 -0.2 13.356215306499331 3.5966173214121744 3.7637797012874925 -4 -1 3
47 1 0.4 14.250945191257397 2.0881615812367396 3.5290544690895573 0 0 0
253 2 -0.2 3.214269192844817 10.707139536149148 8.661778424125224 -2 2 -1
400 2 -0.2 13.507893395833975 0.5938956651085563 4.132523379593618 -1 -3 0
303 2 -0.2 -0.11669891901151352 3.6516142056965535 7.410933077513459 -4 2 0
84 1 0.4 15.45331462322725 2.894287275801145 7.076320399217679 1 3 3
354 2 -0.2 18.75195655684367 3.607994003758564 2.8656230118740083 1 1 0
308 2 -0.2 18.988422856275104 0.248458682890618 2.768631300281687 0 -1 -1
264 2 -0.2 15.624627775906315 1.3515285817642946 7.641627427473782 1 -2 2
372 2 -0.2 9.504786184809076 16.339663602599924 0.3610997183193755 4 -3 2
338 2 -0.2 18.9812682595407 6.431028600028296 3.7417224497230768 0 -1 2
40 1 0.4 2.0704526152390508 7.967997698711924 1.8787037002548517 1 -1 2
359 2 -0.2 0.3679596928970008 8.325452858335176 2.4529156010803916 0 -3 -1
364 2 -0.2 2.2162668602699527 8.900063281305187 6.866678765243224 -4 -2 -2
433 2 -0.2 18.20495780396931 14.14763106321752 8.526218867219649 1 -1 0
316 2 -0.2 2.3616870008068047 6.569873810291497 6.601823458146632 -3 2 0
350 2 -0.2 3.1613270170273537 9.240776867251821 1.6967864184249306 2 1 -2
61 1 0.4 18.66644567303077 7.98374120817723 3.462887425604241 -3 2 0
448 2 -0.2 17.915897657590996 9.1689500945417 4.491340300856665 1 -4 0
92 1 0.4 3.8027595341814004 6.057377074774908 5.693625224402881 0 2 5
328 2 -0.2 4.575072976025479 7.571127744850138 5.250835843536175 3 -4 2
54 1 0.4 -0.1563223795534187 12.664593637555914 6.006147389116234 1 -1 4
365 2 -0.2 -0.3374259365557628 7.8968731022917265 5.712824706579599 2 -3 3
216 2 -0.2 5.175682420980891 10.356443222492697 7.136088757793062 -1 2 1
72 1 0.4 3.348348376710805 10.11163819330948 7.211390397355532 -2 -1 2
164 2 -0.2 16.348112143910654 11.13659428170603 2.9981857482091065 1 1 2
382 2 -0.2 0.5688729595772698 12.353819335129364 7.535235183942965 -2 -2 2
312 2 -0.2 19.121808209322797 14.20131233134447 6.100280127411862 -5 -1 -4
357 2 -0.2 0.3359878131499978 7.294700694883154 7.7059645774496275 2 7 1
294 2 -0.2 6.382225876121372 12.960068293267312 2.3298387930315054 1 -5 2
87 1 0.4 1.197205566950729 7.84676348652161 6.507453251268537 4 0 -4
68 1 0.4 0.8882375018427646 12.44088358541972 2.9782970894239336 0 4 -1
387 2 -0.2 0.8458859490868091 12.10459176168698 1.323839810326851 0 1 0
396 2 -0.2 2.6478544946856313 12.62599439435911 3.388918228123786 -3 0 -1
14 1 0.4 3.6090355645213874 12.07479498335356 4.8255966427818 -2 -4 1
157 2 -0.2 3.7023323555329393 10.329544767422105 5.30757722061926 -2 -3 2
3 1 0.4 3.8554781479722156 9.799083622065348 0.3220530435032348 2 1 -1
420 2 -0.2 13.66051121523775 16.702676457923584 -0.0446945077654094 2 -1 -5
17 1 0.4 4.873694053221891 -0.17856926832245107 8.18626369673571 -1 -2 1
251 2 -0.2 7.315381600334773 11.982981469458888 7.549649873909125 -1 1 -2
363 2 -0.2 6.754986928142805 6.658156936690622 5.363669993997999 1 1 1
250 2 -0.2 6.52641035327572 7.735833176934836 1.3441026475829907 -4 3 6
368 2 -0.2 14.200238924598942 17.85219452685633 3.336505772218971 3 -2 1
186 2 -0.2 6.92679191076587 9.061704717815672 6.457905399853865 -1 -2 1
161 2 -0.2 7.515975728439841 14.853114239314632 0.06169459655410403 2 -3 -2
10 1 0.4 6.184279488671591 8.072304190519649 5.197227125643614 0 0 1
102 1 0.4 6.6249490948822 10.226836657059836 7.6962340966047 1 1 -4
383 2 -0.2 1.8082393806916164 7.463301873820598 0.40592947252918476 -1 0 -2
244 2 -0.2 5.244857057412447 10.71042145826288 0.40285511473426816 3 3 0
109 1 0.4 8.018123640240294 16.367545360993574 8.905887374687483 -2 -2 2
154 2 -0.2 6.996606514073415 8.788069530138664 3.695171475693324 -1 -2 0
131 1 0.4 6.42600147462518 11.718694213805215 1.072317835923749 2 0 0
152 2 -0.2 7.219183905184011 10.473058442667185 1.7308098159460799 1 -1 -4
391 2 -0.2 12.11163746699353 13.993364113002931 5.717127003752363 1 0 4
421 2 -0.2 9.229630812391752 6.285327948520121 4.877019351187453 0 -2 2
388 2 -0.2 9.787458405910556 12.962434230959722 7.044789395001196 -1 0 -1
7 1 0.4 11.655673434565113 12.788666398278304 6.902133858922917 1 -1 -2
49 1 0.4 9.988544955088734 6.634130231947613 3.3618452001789576 0 -3 0
191 2 -0.2 8.889580216104333 7.788038039197449 2.51567941130598 -1 0 3
136 1 0.4 7.507783588073984 8.647248630116337 2.2203641742415177 -4 4 4
327 2 -0.2 11.29298588508747 7.6785848155993115 7.680652791123933 -1 5 0
214 2 -0.2 5.627100554625181 3.0380804423052967 -0.04147146081801506 3 4 -1
380 2 -0.2 11.565934545693317 6.939874807730744 2.5847379276396603 0 2 1
321 2 -0.2 13.45193011320731 6.948432868415197 0.11713389622883885 -1 0 -3
185 2 -0.2 9.518834095001946 5.258281890758408 2.774673022205146 3 4 0
281 2 -0.2 9.588704239021578 15.600080029498816 8.718741769945968 -3 -3 -4
343 2 -0.2 16.901418927148313 16.249799865085034 6.859344675352636 1 3 1
132 1 0.4 15.89681064505329 7.008936999384993 3.8380523965580613 -2 1 -2
313 2 -0.2 15.870836841047986 6.950751637584512 5.559177962719088 -2 3 -2
371 2 -0.2 14.119817119625758 12.649585527766217 2.9667575490334053 -2 -2 1
91 1 0.4 11.99678646893046 6.985236751781742 6.1755171093181245 2 4 5
284 2 -0.2 17.15553941737508 8.460676995209052 7.056484980478665 -3 -1 1
6 1 0.4 18.118808059513405 7.298982584829639 6.744709487381529 1 6 -1
221 2 -0.2 11.888220913446668 7.915013222637432 4.827630546961373 1 2 2
150 1 0.4 15.156686087712048 7.637150500582722 7.028709352371414 0 -1 0
86 1 0.4 12.759226175687774 7.967742173214861 3.3783018778619796 -4 -1 -1
22 1 0.4 17.422621475511125 10.646192704147115 4.353941290419346 -2 -2 0
332 2 -0.2 16.849638829791456 7.966658586215766 2.7340167878717057 -3 3 3
333 2 -0.2 17.81978965849251 11.77056065681646 5.7019182996431015 0 0 1
155 2 -0.2 13.621774445558554 6.841003839960134 6.451755112689809 -1 4 2
440 2 -0.2 14.405581497674797 7.269496197922866 3.1905207286171287 7 -4 -3
138 1 0.4 18.83597961345044 12.681137355877205 8.880471807702284 1 -2 2
197 2 -0.2 13.243666418186232 9.810404437299818 3.0583456558283606 6 2 5
442 2 -0.2 13.847964728310139 10.805948206690811 5.38586712434669 -4 6 -3
427 2 -0.2 14.467552200616787 9.217179878493985 7.048164524883338 1 0 1
1 1 0.4 14.52391827022654 10.991441201453476 3.3731128552829253 0 0 -1
401 2 -0.2 -0.4095272988879746 11.576920802029207 3.300608235486544 -2 2 -2
349 2 -0.2 17.549600213797106 11.851423379951816 8.443081196483583 2 1 0
19 1 0.4 13.534705279707087 10.520585012815964 6.99888796401729 -2 1 -1
437 2 -0.2 14.191502570762502 11.918236444704123 7.882201615342332 -2 -3 2
223 2 -0.2 15.25019480054813 6.755344272403947 8.630593751212674 2 -2 0
347 2 -0.2 6.965100828247521 5.269240136690081 9.105333508815082 -1 2 2
381 2 -0.2 17.622083147227805 14.459690774335433 0.6462248451863004 -1 -1 -4
12 1 0.4 15.301342913785994 13.914839891234877 2.2709135524446578 0 -1 -2
342 2 -0.2 17.669534803943055 5.962221207963443 7.61878054088808 1 -1 2
127 1 0.4 5.36008164535314 16.0082870091824 7.763965835555775 2 -1 -1
63 1 0.4 2.095931928172983 17.63810204030856 5.427322221603633 4 -1 -3
441 2 -0.2 4.97956312584164 17.557382815754004 8.431765607392489 0 1 1
360 2 -0.2 4.992751224250619 16.036503210713107 6.147465145489647 -1 0 3
239 2 -0.2 3.789923648557547 15.102117416590504 7.833694618301699 -1 -5 -1
299 2 -0.2 2.303360806368975 15.934708982280235 1.8969733733751077 0 -1 -1
85 1 0.4 6.350812058751013 13.283072942813762 3.9257850618234142 -1 4 -4
93 1 0.4 10.58598163579031 8.10573303206496 8.97097501585578 0 -2 -1
346 2 -0.2 1.0022876688781985 11.69466070712076 5.1851429802901565 4 0 0
358 2 -0.2 5.301672677895335 16.21886768397422 0.9676179655322812 -3 -4 6
219 2 -0.2 3.657066602258583 18.762176129695547 5.281148203964863 2 3 -2
291 2 -0.2 0.590011972145017 18.370072985676025 5.3350117051827946 -6 4 2
314 2 -0.2 0.5483149775709567 14.287790351718947 2.8603116445256713 0 0 1
399 2 -0.2 1.7038860879469864 16.331404726754002 4.326423386096149 3 1 2
128 1 0.4 3.6033651785741876 13.613060818821705 7.795202934404619 -1 -1 5
190 2 -0.2 2.102449971151794 17.139342994280053 6.862746456434491 1 -2 2
265 2 -0.2 2.9553846014215126 12.787939437095977 6.414666112074094 5 -3 1
322 2 -0.2 4.3122147363420975 12.989162603005541 9.038459787541687 -4 2 4
417 2 -0.2 4.4361404573398495 16.968030758022664 3.270843594118344 -3 -5 0
262 2 -0.2 5.116488658951216 12.472417164066911 4.503159052662663 0 0 0
8 1 0.4 15.565900352928058 17.044093231669542 3.979779586051486 -1 3 4
446 2 -0.2 -0.0005037136062412406 16.851230622849585 2.3237141568600106 0 3 0
130 1 0.4 3.8360224205903064 16.304666116241187 1.766310105063499 1 -5 0
41 1 0.4 1.013571748854688 15.789200140880816 3.00162542154464 1 1 -3
438 2 -0.2 9.118555470443553 0.9792933637101304 8.870576612165683 3 4 -2
292 2 -0.2 0.45158238901039005 19.005010008562913 8.185711357847023 -2 -1 0
124 1 0.4 1.3329560037657104 17.521714533274324 8.389258329175664 2 1 0
34 1 0.4 16.236738504802204 -0.325579135860223 8.053085553795562 1 -1 -2
352 2 -0.2 14.630975733349143 16.887972391890695 5.5010474682865445 -5 2 1
82 1 0.4 15.144459777635767 16.5907416520022 6.944209686764301 2 0 2
248 2 -0.2 1.2977270994739718 2.2326805735208066 8.600398164817253 2 -3 -1
18 1 0.4 12.8147522000864 18.566475214427516 3.7198710894077953 -2 -3 0
283 2 -0.2 17.07242093987376 17.634794331826736 3.30162235854716 -2 -2 2
206 2 -0.2 10.979377916848982 14.139478308880461 1.3468567297222458 -3 -2 1
259 2 -0.2 15.018085640184866 18.143520173040596 7.550119755320091 -2 0 -4
447 2 -0.2 7.465772500987022 12.659044710980867 5.011358930769111 -3 1 1
43 1 0.4 8.097955754674995 13.015436369206132 6.518266502080655 -2 3 -3
153 2 -0.2 12.048783163947078 13.499151225500928 8.371182564132416 2 0 -5
390 2 -0.2 0.21903942295934997 16.129082310246805 8.22394592496221 3 0 3
143 1 0.4 5.737646024512147 16.608664683531313 4.216172105463216 0 4 0
426 2 -0.2 11.693155224715667 16.203774524728953 7.577361528983795 3 3 0
293 2 -0.2 12.338368959184344 15.486328841524651 2.964882224057317 0 3 0
64 1 0.4 18.48584021631399 18.057122801383926 2.656121169417044 -1 2 -2
337 2 -0.2 9.731458859989125 14.837177964925349 4.203692963502194 3 -4 3
166 2 -0.2 7.498843865666931 16.45486885916533 4.780787164210957 1 0 -1
356 2 -0.2 7.946782406956563 14.6885299802544 6.54632481546154 0 -1 -2
275 2 -0.2 9.999874326353696 16.99447527093386 5.818829530323986 -2 -2 -4
42 1 0.4 8.960820526219608 15.61536183002119 5.3159027356294315 0 -2 -1
331 2 -0.2 17.46688578267389 18.93358504821685 7.026837555905854 0 2 0
62 1 0.4 11.015245188663028 14.732585027857112 2.768331924677346 1 5 0
217 2 -0.2 5.690276802314279 14.892141381174417 3.871849477525819 0 1 -1
225 2 -0.2 12.23394607121493 17.957709626808295 5.01734563373009 0 -2 1
111 1 0.4 9.129486676161756 14.960924444043535 -0.06017028686512266 5 2 1
99 1 0.4 11.686153068574612 17.150315074598712 6.404962628263851 -3 -2 3
122 1 0.4 18.27952591270722 15.194792236998897 7.206071619085512 1 -1 0
424 2 -0.2 15.201356193989131 15.530061457455897 3.05820423112101 -1 0 -1
20 1 0.4 14.092093661573614 13.733146188247996 8.595275206950841 0 0 -1
187 2 -0.2 14.089989246129612 14.449259120341694 1.223910809569153 0 -1 2
76 1 0.4 13.308872426196606 16.02560213755847 1.6290084604252955 2 2 -2
44 1 0.4 19.073244065754626 -0.2633530289953673 6.627337146557982 2 0 -2
434 2 -0.2 16.988788271619015 4.1081278312672795 0.144867300112959 -3 -1 1
196 2 -0.2 6.59792717057503 15.273203643218965 8.748142321978092 2 1 1
405 2 -0.2 15.402924585383643 3.679592900430885 8.807939028299826 -2 -5 3
335 2 -0.2 4.072559121026746 6.116274237199243 -0.15429574046975159 3 -1 3
324 2 -0.2 6.581029183616662 9.660267709535718 9.15045080657968 3 -3 -2
117 1 0.4 1.2901586952419302 12.222949527726692 -0.39105017621224414 -1 -3 2
374 2 -0.2 2.8822425148726225 18.715717181331787 0.6406460077639289 0 -3 1
192 2 -0.2 15.056858001616947 1.7993432537050182 0.5078063173355777 -3 -3 0
269 2 -0.2 8.651854153269039 17.61720948842802 8.107660237208512 3 -1 -1
149 1 0.4 8.903153166283726 5.545965787360698 9.160914124445217 0 -7 0
213 2 -0.2 3.1409003450713167 0.39301130908231696 8.460944166258304 1 0 1
394 2 -0.2 1.6564402325949419 4.7218177680477496 9.063889927572871 -1 0 3
35 1 0.4 10.79924602222831 14.486457577342426 8.84404695498711 2 -5 2
123 1 0.4 5.177860551366665 5.256899078759876 8.93188466572342 -2 1 0
198 2 -0.2 16.354060377211024 7.233812220193118 -0.20132402513335873 -1 -2 0
230 2 -0.2 4.849000960460231 3.6826013964893187 9.263302088858765 -4 1 -5
282 2 -0.2 2.72970285523281 10.94975956102307 -0.33031144351638203 0 -1 1
218 2 -0.2 5.135735728041889 1.8056463104157516 12.025182674641616 1 3 -2
418 2 -0.2 3.355699526946618 1.9962668971947521 10.113157348213164 0 2 0
395 2 -0.2 3.6491686215645043 3.952705192947268 17.665513226293623 0 0 -1
435 2 -0.2 -0.3557797580655965 16.616728521403022 18.84883820355876 -2 1 -1
77 1 0.4 5.1048649633051415 2.2514488249327904 10.463992835484246 0 3 -1
100 1 0.4 2.4536397308489177 3.203208870777947 16.67925935741793 2 0 -2
24 1 0.4 4.965594078633403 5.290933200547567 17.80116585265773 -2 -1 -4
168 2 -0.2 4.235126061266663 1.683057553380845 17.350156074885597 3 2 0
83 1 0.4 4.734977739330748 0.48909839735551786 16.37200189467952 1 -1 -2
345 2 -0.2 4.7618076373701435 14.815310468950582 18.223687393469266 4 -2 4
39 1 0.4 5.456297298211378 0.6649621746286127 13.142702197679961 1 -6 1
267 2 -0.2 14.338753295741942 13.744076815540398 10.404697263350078 -3 0 -1
304 2 -0.2 2.3393719566976463 3.7201792957742006 14.99847841872776 3 -5 -2
59 1 0.4 0.10026721965745988 5.047602933626399 17.143010141630814 0 -1 3
406 2 -0.2 1.3477087345367733 1.9369321037108 16.972706085570564 1 2 5
94 1 0.4 2.4755648010777604 4.9625836676998505 13.796065427045113 4 -2 0
407 2 -0.2 1.858249152783496 4.730707589413857 12.239998868332933 1 -2 -3
320 2 -0.2 9.467019399916373 7.210186772232763 9.412054997543454 -1 -4 1
23 1 0.4 1.3810028900351923 5.828314632418867 10.453691214290458 1 -1 -1
159 2 -0.2 1.4699698880968026 6.0468768113208915 17.48484376418016 2 -5 0
415 2 -0.2 5.103486255657997 1.2586617530169621 14.914704138377525 1 4 -2
306 2 -0.2 -0.3155898577885149 4.353998181711984 15.067569747637672 1 0 -4
52 1 0.4 13.308323430692779 5.364440805751093 19.0181555413937 1 -3 1
280 2 -0.2 6.058400833786385 6.5086739298646465 17.6016854864827 3 1 -1
15 1 0.4 0.10488961137197816 2.2830626091081787 18.07353493608852 1 -1 -5
404 2 -0.2 1.171073010219669 3.8134624879447143 17.944271389910636 1 -1 4
425 2 -0.2 7.981681054883602 19.03197376808537 17.39353108267558 1 0 4
29 1 0.4 17.58396984934045 15.514131134415472 18.95147877500607 -2 0 2
285 2 -0.2 6.323463038277308 4.1001800669835005 17.405138756469164 0 -2 -2
202 2 -0.2 9.883168293432444 0.06982515081814256 12.701633734463421 1 -2 -2
355 2 -0.2 8.64577685002413 0.33636190646016007 15.258179518343113 -2 -3 0
419 2 -0.2 3.626835713502267 8.573801093748145 18.75181786433576 -2 2 0
184 2 -0.2 8.049668242506172 6.968161103725311 12.924984240459322 6 -3 -1
116 1 0.4 8.394584037029258 5.456386683236703 13.574805062638005 1 1 2
75 1 0.4 8.481612391967653 -0.07182647848325174 13.697342940701462 -2 -1 0
369 2 -0.2 6.805080840148751 4.754328513368833 14.18375351382246 2 1 1
173 2 -0.2 12.733604524058567 3.6083067669596165 16.186334198070394 -2 1 0
46 1 0.4 10.1205678110988 3.732298249397953 10.984665459965655 -4 -3 -1
397 2 -0.2 9.347646269055756 4.646898065554356 12.443015012736211 0 -3 -5
302 2 -0.2 6.004331988928331 6.789444521071053 14.978573447425234 -3 -3 2
31 1 0.4 5.458686004624318 5.365658494010556 15.161365537560028 1 -1 -4
147 1 0.4 8.212851099878298 0.8428221075277333 16.82708505980409 1 2 -2
183 2 -0.2 10.052025367541523 4.286920226201744 9.592797121922722 -2 0 -3
209 2 -0.2 7.1366782168547696 0.6326406849277608 12.582662542522014 2 -1 0
398 2 -0.2 13.041025275825938 18.480782048968383 17.53256485741624 0 1 1
254 2 -0.2 11.366722418625073 1.66732037429195 18.0658804201836 -3 4 -3
311 2 -0.2 6.937344001996817 1.7306459361715292 17.429963302098464 2 2 -1
367 2 -0.2 5.539539775376493 0.8013073398679504 9.644363247715313 -1 -4 -3
274 2 -0.2 16.28195236412122 16.656742201462063 18.21027611663049 1 1 2
430 2 -0.2 18.15745665309917 2.0159593514184766 17.750291137242588 -1 0 2
145 1 0.4 14.014492616268695 4.124120084431939 15.435684031718752 4 0 1
241 2 -0.2 14.759204310626886 2.4799265254487004 15.808979087557464 -4 1 0
237 2 -0.2 13.588919561744426 3.618506129287704 18.661285735276802 -3 -1 -3
16 1 0.4 16.971829789195674 0.37217089464153474 15.467683491869586 -2 2 3
288 2 -0.2 4.837744840615182 11.406930957104947 11.185502079771313 0 4 -2
295 2 -0.2 0.741008653846309 0.8481183143554292 18.898644026511278 4 1 1
261 2 -0.2 17.601478097127064 2.249038811890328 14.95220484421923 -3 -2 4
58 1 0.4 12.851900607848409 2.6078857384708685 17.443205082988452 0 1 -2
228 2 -0.2 12.013573206458979 4.3322233569085 11.350444909803885 0 1 -3
79 1 0.4 18.704160821287413 3.1831846374244033 14.015583517130198 -2 -3 0
362 2 -0.2 15.367209636015685 5.010960828338149 15.278323364049582 -3 1 -1
301 2 -0.2 16.89981328723971 5.090322377032452 10.700893346060697 1 0 -4
389 2 -0.2 0.34044333202998023 2.0256613725324732 12.90036358440377 2 2 0
69 1 0.4 2.1178554091819857 1.0240492995628765 9.493768438573252 0 1 -1
188 2 -0.2 18.595087779891365 3.8687715012776547 12.339017617047434 0 2 -1
101 1 0.4 18.170328389030875 5.378278348092661 11.523861220816665 0 0 2
449 2 -0.2 -0.11331885588322 5.936214445016042 10.698108753250406 0 2 -3
97 1 0.4 12.034883664123505 3.290016517401141 12.637730061645936 -3 3 3
366 2 -0.2 13.060638021208637 2.636460437607692 13.65660843451421 -5 3 2
194 2 -0.2 15.360264313664887 0.1225908904201366 14.947909396628843 1 2 2
296 2 -0.2 18.116039888056477 5.64316234815325 17.724105649383198 2 -2 3
27 1 0.4 5.466254848250951 2.802265445099243 17.93404235696446 3 1 -3
30 1 0.4 16.67319001541806 5.8099112836268105 18.73728986338466 -2 2 4
220 2 -0.2 10.578755541850187 2.7545000642162893 12.058991880378928 1 0 -1
305 2 -0.2 1.007305805218228 0.7828511713789694 10.550761115822162 -2 0 -2
144 1 0.4 14.103710942382158 1.549622515035925 14.657716738226659 -3 -2 0
98 1 0.4 4.90039571265717 12.894911913059605 10.751352094280813 -3 2 1
344 2 -0.2 4.707203538642827 6.538961497174567 9.805937308100413 5 -3 -1
121 1 0.4 10.02760991552307 4.8652624091847105 18.521577973513754 -3 -1 -6
300 2 -0.2 3.8468940186725025 5.996110398442758 16.72721386587531 -1 1 -1
412 2 -0.2 19.084882164970075 12.283886001805925 10.340648547761507 -2 2 2
416 2 -0.2 2.276044155124585 7.054372223737447 11.12571413449254 -1 -1 -4
386 2 -0.2 4.728389253142532 8.815560552508627 11.239153078184868 3 1 3
298 2 -0.2 2.2881928836885805 6.542479257234654 13.517469516785335 1 0 1
66 1 0.4 2.466477520749559 6.353121318661383 18.872858492121836 -2 1 3
286 2 -0.2 18.954631273528765 8.857945409739216 13.694456788828143 -3 2 3
249 2 -0.2 0.03499959347152809 10.814471566120627 15.46854691066546 1 1 0
146 1 0.4 0.45619633831150563 9.98549687118499 14.138568786081965 -1 1 2
105 1 0.4 3.9099103006416813 7.4906823437528836 10.985671673313627 1 0 -4
231 2 -0.2 0.9717622089489963 9.016825187406246 16.92542142549653 1 -1 1
96 1 0.4 4.356911830217316 10.710258687663222 15.15285382073097 -2 -1 -1
307 2 -0.2 2.013034904696967 13.71183178597262 18.924163751628402 4 -2 1
148 1 0.4 5.833549644534797 8.293516877290166 16.874792591973517 1 4 0
378 2 -0.2 0.3515122853402268 11.093210613746779 13.132400148641718 5 1 -2
114 1 0.4 0.054712751850449215 10.259362325465702 17.030989400038234 -1 -4 0
235 2 -0.2 5.178971710137138 10.59903089280276 13.669120105065117 7 1 -1
330 2 -0.2 4.294110747987924 4.7003008810124 14.18143706571711 3 0 -3
162 2 -0.2 18.29531397560652 15.067045366300826 14.584602550434928 -1 1 -1
413 2 -0.2 4.745015708317683 9.088361460089786 15.740841980357317 -3 3 -1
279 2 -0.2 11.522535011500953 5.548723349686212 18.81003501639918 0 1 -2
373 2 -0.2 0.26658578000555855 11.485704391797388 18.229033781243515 -3 4 -1
37 1 0.4 5.924913613643752 10.015304212152488 11.356745732540809 2 1 2
271 2 -0.2 7.297362305842642 9.043156545173053 17.34501495930233 2 2 -2
141 1 0.4 9.795958639162823 6.629182263917428 16.2007855674657 -3 3 0
178 2 -0.2 9.271807772919583 5.575757692892456 15.194685010538409 1 3 1
205 2 -0.2 10.307179524277368 3.543660060793732 17.319655196428602 -1 2 5
436 2 -0.2 6.966429215236813 9.22384086838762 12.333736132714735 1 0 -1
125 1 0.4 8.405029926798475 9.446313082115259 16.325490668119535 1 1 4
263 2 -0.2 9.853530732266627 9.02642639780831 12.415340729981931 2 -2 -2
444 2 -0.2 9.433022665418527 8.089772350102844 16.576815348402448 2 -1 -3
411 2 -0.2 11.214184634624214 9.203975715184978 10.036940506279207 -2 1 -2
212 2 -0.2 8.068772914654186 8.89636549535029 14.822929990888051 2 -1 -2
21 1 0.4 8.169536035006137 8.561311382770665 12.980986264229399 -1 -1 2
106 1 0.4 11.374256598484116 9.651285272324387 11.684171273630925 -3 1 2
278 2 -0.2 8.676465819217771 11.01242791652016 16.831036823072953 -3 6 -1
377 2 -0.2 9.051360055730244 6.10926827431514 17.79722517432867 -5 4 -3
423 2 -0.2 11.485232086447256 6.5566697373862795 15.636446923726005 -1 5 4
245 2 -0.2 7.380030168103195 11.917881216512582 11.716497608316443 -2 0 6
90 1 0.4 12.42315924880267 13.019944561825774 14.99561800602842 -2 2 0
353 2 -0.2 10.731650037958195 12.207309439822684 15.589457466978008 -5 -1 4
211 2 -0.2 -0.04098300611757533 16.886958911862727 10.903054108643598 -1 -4 -1
329 2 -0.2 13.020157515090471 4.904973832628144 14.260411259485506 -2 -2 0
32 1 0.4 12.870781818240548 6.554996132140594 14.509090066206618 -4 -2 3
233 2 -0.2 12.31248031082553 7.002048956668366 13.034542639458989 2 -5 3
315 2 -0.2 -0.030621201870902337 16.21365683720094 12.96640359041203 -4 1 0
45 1 0.4 18.50867909060187 17.432773380013927 12.19893695394982 -3 0 -2
323 2 -0.2 2.343928019832678 16.629707708093154 9.433427088857147 4 -1 6
336 2 -0.2 6.570793739336331 16.770828507896045 17.8484789811448 3 0 1
207 2 -0.2 15.984070092382588 8.559971845740005 17.154698882911603 -2 -1 1
287 2 -0.2 16.693815499391796 7.399710093302362 14.887311427040395 0 3 1
175 2 -0.2 -0.3552623969271302 13.599745183213406 12.745340179773182 -1 2 0
445 2 -0.2 12.729442398609695 9.58893803649339 12.480199635950775 3 6 -1
429 2 -0.2 14.283492646874626 7.405107867919003 15.182226992551662 2 1 -2
25 1 0.4 15.532429931716042 8.086433568704464 15.761363809540047 5 0 2
318 2 -0.2 15.267058064738498 9.860855662287536 15.169123935195914 -1 1 -3
70 1 0.4 18.78558082011398 12.100819182179427 12.157058270312517 0 2 1
167 2 -0.2 15.089993223584031 11.146134914869068 11.668620320534465 -2 3 2
246 2 -0.2 14.866057073907852 12.46863176205347 13.24590002752902 -2 -5 -1
81 1 0.4 17.19120448474521 7.915682383648516 13.456931962866127 4 0 1
289 2 -0.2 17.585384253280452 6.661846731102489 12.444585793983855 -1 -8 1
270 2 -0.2 15.8514393613663 14.823471966978614 15.09991411982232 -2 -4 -5
266 2 -0.2 16.119546395595027 8.768827884940961 12.374814358503796 0 -1 -3
26 1 0.4 16.398679085305933 10.0434720178478 11.419672783230553 2 1 -1
158 2 -0.2 17.55797787897011 11.315316460066759 11.830199231731969 1 3 0
126 1 0.4 15.141138264929063 11.397312973650152 14.517399684240244 4 2 -3
189 2 -0.2 13.913736691279837 12.07245480019662 15.318575597369149 -2 -7 1
110 1 0.4 15.63809862234476 8.581250763440885 18.780689875436888 0 2 -2
60 1 0.4 14.429520873080245 12.573690468599132 11.58333043622382 -1 -1 0
151 2 -0.2 4.56488780530082 18.882725108055908 13.376792028266946 7 -2 2
450 2 -0.2 4.080053526346547 14.946313313935612 14.777230738856083 3 -1 -3
227 2 -0.2 3.1001509742605773 16.54281080859723 11.847905643687227 -3 0 -1
13 1 0.4 17.22127347225879 14.712996378579305 15.666037686844057 2 -2 2
222 2 -0.2 14.430039211432314 16.39335840613169 16.670350526338186 0 -3 -4
204 2 -0.2 3.4862795830671116 19.122845515816064 16.26579011418829 2 2 -2
258 2 -0.2 1.5440065519569277 14.734053421971817 12.269163811271987 -5 0 0
163 2 -0.2 17.435861334649534 18.618905685927796 14.55875855600785 3 2 1
169 2 -0.2 3.7488333612974705 16.748163742851222 16.622139994551894 3 -3 -1
393 2 -0.2 4.897704935003693 14.044811454798145 12.138060603465174 -1 -1 -3
140 1 0.4 3.7268126968124236 17.339951573175547 13.123518024139646 2 0 1
195 2 -0.2 3.361765777582351 11.972269791787589 14.931582742886707 0 -2 -2
422 2 -0.2 1.4026089897390235 13.96427142371995 14.503922493862495 -4 3 2
65 1 0.4 3.2360210080980027 15.371930350758578 17.7766121613148 2 -3 -4
240 2 -0.2 2.9498213713819714 17.142573395638834 14.479550514213328 0 2 0
208 2 -0.2 2.8558691071898514 13.967940969872384 16.647808664512972 -1 1 -1
180 2 -0.2 5.520767240327677 11.398121164102019 16.660963833369557 0 0 4
9 1 0.4 2.710556063902051 17.80412700989666 16.00662658841981 0 0 -2
171 2 -0.2 1.9511385578523068 16.881796615209364 17.659965820850143 0 -3 0
11 1 0.4 3.054119668491375 13.497880320311316 15.120589965452803 3 5 0
48 1 0.4 0.17620715532382203 17.45726973064404 17.5877248493396 1 2 3
174 2 -0.2 16.548817255851375 12.309396041549746 14.964383869521123 -3 -5 -1
112 1 0.4 0.3068938995089223 14.705624623433483 13.39131050165824 -1 0 3
334 2 -0.2 17.81063263283599 14.608204054311072 17.51014995222186 -6 -3 2
104 1 0.4 11.049010565876126 -0.3242425188531377 11.76370108031897 3 0 -2
193 2 -0.2 7.394017117132155 17.99867705065344 13.650616785665543 1 -3 -3
317 2 -0.2 12.091585213711353 17.974562776927957 12.408059186694084 0 2 -1
229 2 -0.2 11.583614731359381 0.9662132780712465 10.94816595067338 -6 5 -1
201 2 -0.2 6.727060062065664 13.499311817956771 13.429383652186194 3 -2 1