LAMMPS (29 Oct 2020)
OMP_NUM_THREADS environment is not set. Defaulting to 1 thread. (src/comm.cpp:94)
  using 1 OpenMP thread(s) per MPI task
units 		real
dimension 	3
processors 	* * *
boundary 	p p p
atom_style 	charge
atom_modify	map array

#pair_style     hybrid/overlay coul/long 10.0 table linear 10000
pair_style     table linear 10000
read_data       tmp.dat
Reading data file ...
  orthogonal box = (-0.42652611 -0.42652611 -0.42652611) to (19.151951 19.151951 19.151951)
  2 by 3 by 4 MPI processor grid
  reading atoms ...
  450 atoms
  reading velocities ...
  450 velocities
  read_data CPU = 0.006 seconds
#pair_coeff     * * coul/long
pair_coeff     2 2 ../ff_fitting.table OO
WARNING: 30 of 8000 force values in table OO are inconsistent with -dE/dr.
  Should only be flagged at inflection points (src/pair_table.cpp:461)
pair_coeff     1 2 ../ff_fitting.table SiO
WARNING: 7 of 8000 force values in table SiO are inconsistent with -dE/dr.
  Should only be flagged at inflection points (src/pair_table.cpp:461)
pair_coeff     1 1 ../ff_fitting.table SiSi
WARNING: 16 of 8000 force values in table SiSi are inconsistent with -dE/dr.
  Should only be flagged at inflection points (src/pair_table.cpp:461)

#kspace_style    pppm 1.0e-5
neighbor        2.0 bin
neigh_modify    every 1 check yes
timestep	1

dump 1 all custom 100000 sim.xyz id type x y z

thermo_style    custom step temp pe press pxx pyy pzz pxy pxz pyz lx ly lz xy yz xz density
thermo          100000

##generate velocity
velocity        all create 3000 8951
#velocity       all scale 0

#NVT run
fix              1 all npt temp 3000 0.01 100 iso 0 0 1000
run              30000000
Neighbor list info ...
  update every 1 steps, delay 10 steps, check yes
  max neighbors/atom: 2000, page size: 100000
  master list distance cutoff = 10
  ghost atom cutoff = 10
  binsize = 5, bins = 4 4 4
  1 neighbor lists, perpetual/occasional/extra = 1 0 0
  (1) pair table, perpetual
      attributes: half, newton on
      pair build: half/bin/atomonly/newton
      stencil: half/bin/3d/newton
      bin: standard
Per MPI rank memory allocation (min/avg/max) = 4.377 | 4.381 | 4.384 Mbytes
Step Temp PotEng Press Pxx Pyy Pzz Pxy Pxz Pyz Lx Ly Lz Xy Yz Xz Density 
       0         3000   -39923.927   -4451.1413   -13014.037    2376.3101    -2715.697    1120.4753   -3113.4041   -2952.1691    19.578477    19.578477    19.578477            0            0            0    1.9941047 
  100000    2767.7308   -39708.211    1120.2246   -5628.7243     8296.435    692.96317   -6030.6037    4619.3974    6555.6611    19.330642    19.330642    19.330642            0            0            0    2.0717905 
  200000    3049.5923   -39574.315   -1878.3214   -3286.1563    6375.9815   -8724.7895    845.86134   -60.229271    13385.805    19.855422    19.855422    19.855422            0            0            0    1.9118215 
  300000    2925.8447   -39538.161    10278.567    9957.7786    6065.7827    14812.141   -9138.7508    7490.8863   -686.28236    19.492424    19.492424    19.492424            0            0            0    2.0206317 
  400000    2899.3929    -39710.68    6596.8617     17958.58     2529.456   -697.45096    974.03245    8808.4641    1159.3064    19.465604    19.465604    19.465604            0            0            0    2.0289955 
  500000    2863.8998   -39873.355   -8971.6911   -7346.8449   -13994.433   -5573.7952    9536.6301   -1498.0946   -3678.7409    19.365242    19.365242    19.365242            0            0            0    2.0607053 
  600000    2824.5856   -40042.049   -20441.696    -15856.59   -19453.908   -26014.588   -3281.4728    1801.0648   -1187.1913    19.455888    19.455888    19.455888            0            0            0    2.0320364 
  700000    2864.9783   -39854.595    5676.9621    4776.7669    15353.186   -3099.0666    221.51704    486.68723    6342.1971     19.40027     19.40027     19.40027            0            0            0    2.0495635 
  800000    2823.0475   -40010.085   -1692.4145    118.65749   -5647.0238     451.1228   -10395.476    2166.6659    5923.8358    19.098147    19.098147    19.098147            0            0            0    2.1483797 
  900000    2852.1118   -40211.547    2843.7246    12807.075   -9304.3428    5028.4416    2875.8931    358.34881    6011.3601    19.603153    19.603153    19.603153            0            0            0     1.986584 
 1000000    2855.3494   -39699.461    9467.5557    6918.5849    18093.013    3391.0694   -9428.5386   -4231.5868   -152.70625    19.612638    19.612638    19.612638            0            0            0    1.9837032 
 1100000    3046.3758   -40264.043     9882.423    5205.7183    5040.0025    19401.548    6254.3607   -678.26346   -2146.9967    19.398299    19.398299    19.398299            0            0            0    2.0501882 
 1200000    2851.9294   -39938.831    6912.1046    1593.1118    8566.6879    10576.514    3835.9286    4350.0643    3149.5418    19.471749    19.471749    19.471749            0            0            0    2.0270749 
 1300000    2853.4097   -39837.329   -210.24668    2807.2921   -4960.3148    1522.2826    6071.9272   -11134.847     323.5639    19.754616    19.754616    19.754616            0            0            0    1.9412386 
 1400000    2847.7203   -40527.756   -8960.8512   -3894.7094   -14356.056   -8631.7886    3042.2378     11256.81   -3956.8064    19.147492    19.147492    19.147492            0            0            0    2.1318126 
 1500000    2839.9503   -40208.249   -2084.2172    3533.3632   -24635.018    14849.003   -8532.6047    4977.7163   -2576.4201    19.340507    19.340507    19.340507            0            0            0     2.068622 
 1600000    2751.5661    -40228.85    1300.8897   -551.26779    1384.9437    3068.9931   -647.44286    5485.1932    5859.7273    19.425378    19.425378    19.425378            0            0            0    2.0416263 
 1700000    2600.3225   -40331.268   -12296.323   -18165.759   -12985.752   -5737.4568    1424.3567    -2052.137    393.08345    19.366472    19.366472    19.366472            0            0            0    2.0603129 
 1800000    2852.1762    -40284.02    4502.5035   -2477.1306    13198.072     2786.569   -12144.588   -3947.9293    -1691.683    19.446759    19.446759    19.446759            0            0            0    2.0348997 
 1900000    2812.9033   -40391.684    9236.9096    7104.3621    9644.6065     10961.76    2365.6805   -2041.7767    7561.8417    19.236545    19.236545    19.236545            0            0            0    2.1023425 
 2000000    2885.5233   -40735.861    2407.0807    9577.9393    1570.2067    -3926.904    1509.4498    411.20198    1822.5761    19.274841    19.274841    19.274841            0            0            0    2.0898364 
 2100000    2820.3921       -40596   -4874.0352   -3694.8685   -8777.9653   -2149.2718    14613.834   -189.47759     6517.851      19.2298      19.2298      19.2298            0            0            0    2.1045554 
 2200000    2925.7793   -40121.181   -506.26517   -4424.7373   -6953.8855    9859.8273   -404.69738    3264.5035    -7019.122    19.712997    19.712997    19.712997            0            0            0      1.95356 
 2300000    2767.2108   -40531.896    2700.4815   -1462.7601    5375.9169    4188.2877    3180.8322   -1169.3453    4516.4965     18.93648     18.93648     18.93648            0            0            0    2.2038749 
 2400000    2609.7673   -40497.204    3936.6737    8786.7645    2672.4117    350.84492    108.05545   -4910.8296    7485.9256    19.261882    19.261882    19.261882            0            0            0    2.0940571 
 2500000    2742.7479   -40453.567    1426.2675   -103.49027    3458.4563    923.83641   -2173.9271    8834.9345   -5376.4554    19.665124    19.665124    19.665124            0            0            0    1.9678621 
 2600000    2706.9876   -40408.009    11466.135    14158.912    5511.7918    14727.702    -3870.153    3550.6507    2265.0637    19.091176    19.091176    19.091176            0            0            0    2.1507338 
 2700000    2689.8814   -40492.968    5876.2928    2882.1338     10527.86    4218.8842    7066.7964    6141.8527    9186.7863    19.550851    19.550851    19.550851            0            0            0    2.0025699 
 2800000    2689.5429   -40447.367   -361.68099   -12385.069    9642.2031    1657.8225    11269.201   -3317.7366     3026.411    19.346907    19.346907    19.346907            0            0            0    2.0665698 
 2900000    2590.7666   -40709.453    2090.4018    7563.4377    -3975.909    2683.6766    4604.3008   -8563.8826   -3235.6683    19.388524    19.388524    19.388524            0            0            0    2.0532906 
 3000000    2572.8759   -40816.156   -13938.138   -4156.6399   -10377.451   -27280.324    -3228.757   -2914.9855     9871.948    19.606865    19.606865    19.606865            0            0            0     1.985456 
 3100000    2643.9912   -40736.432     577.5656   -7135.7291   -5747.4458    14615.872    -3117.001   -2568.3487   -6539.5093    19.158645    19.158645    19.158645            0            0            0    2.1280915 
 3200000     2708.241   -40726.285   -9633.3081   -11587.753   -20026.035    2713.8638   -2547.5349   -3716.5222    11643.081     19.37854     19.37854     19.37854            0            0            0    2.0564659 
 3300000    2799.4681   -40970.619    -5010.528    6456.8235    220.07999   -21708.487   -263.47237    81.904446   -1229.1479    19.618907    19.618907    19.618907            0            0            0    1.9818019 
 3400000    2569.0071   -40951.502   -3024.6631    1238.4493   -4648.6775    -5663.761   -4952.1803   -11104.942    1793.9654    19.290013    19.290013    19.290013            0            0            0    2.0849092 
 3500000    2677.7516    -40804.12     -1920.75     4242.824   -9681.5886   -323.48548    2083.9874   -2435.1688    153.52535    19.108642    19.108642    19.108642            0            0            0    2.1448417 
 3600000    2626.4926   -40898.417    614.29569    3916.9321    2626.1547   -4700.1997    12027.058   -3712.3001   -1781.1125    19.590724    19.590724    19.590724            0            0            0    1.9903675 
 3700000     2488.279   -40830.744   -16050.828   -12695.565   -29720.563    -5736.357   -1880.7531    11914.405   -3053.9675    19.154374    19.154374    19.154374            0            0            0    2.1295157 
 3800000    2505.1252   -40866.986    2578.4282    1321.3682    8281.2645   -1867.3482    1165.3296    6333.2469    7857.7139    19.233441    19.233441    19.233441            0            0            0    2.1033606 
 3900000    2483.4551    -40989.44    3342.2812   -1914.8901    7741.3659    4200.3678     -5669.65    4297.3399   -5077.9098    18.942425    18.942425    18.942425            0            0            0    2.2018006 
 4000000    2670.3396   -40820.107   -3764.9977   -2420.7013    5375.9363   -14250.228   -2556.5349   -177.78316    11318.479     19.24013     19.24013     19.24013            0            0            0    2.1011676 
 4100000    2647.3421   -41028.441   -8278.4598   -6121.0403   -3180.5311   -15533.808    1649.1346    6017.5312    5094.5215    19.077456    19.077456    19.077456            0            0            0    2.1553775 
 4200000    2390.7269   -41152.492    5383.7736   -1851.6497    19026.778   -1023.8076    4782.7029   -2616.7173    5514.1814    19.200355    19.200355    19.200355            0            0            0     2.114253 
 4300000    2532.0222    -41291.61    1921.3935    965.99562     4080.994    717.19101   -1173.7908   -2488.2705    4334.8762    19.098919    19.098919    19.098919            0            0            0    2.1481189 
 4400000    2544.1049     -41402.4    14041.267    18382.419    4645.1404    19096.242    1572.6607   -2378.7694   -14842.029    18.812762    18.812762    18.812762            0            0            0    2.2476413 
 4500000    2498.1843    -41246.84    7167.6056    8018.4111    12370.553    1113.8522   -788.23734   -2085.3734    3003.3336    19.170385    19.170385    19.170385            0            0            0    2.1241843 
 4600000    2390.5408   -40999.709    9839.8537   -5031.9553    18805.906     15745.61   -292.06015    657.80659    2171.8113    19.266769    19.266769    19.266769            0            0            0    2.0924642 
 4700000    2474.7897   -41334.894    1148.8326    6819.7998   -5341.2167    1967.9146    4463.0315    -11672.68    -5288.682    19.038318    19.038318    19.038318            0            0            0    2.1686974 
 4800000    2494.5267   -41386.286   -1667.8332    6067.2916   -8973.5895   -2097.2018   -5077.2231   -6733.3549   -6527.7139    19.021452    19.021452    19.021452            0            0            0    2.1744713 
 4900000    2354.7976   -41717.587   -8438.3417     5208.615   -25541.398   -4982.2415   -6501.9525    3615.3345     1499.465    19.074914    19.074914    19.074914            0            0            0    2.1562391 
 5000000    2780.3395   -41577.368   -615.52136   -21641.872    10825.861    8969.4476   -3747.3817   -1783.9485   -3949.1222    19.159648    19.159648    19.159648            0            0            0    2.1277575 
 5100000    2763.5946   -41317.804   -4369.0235   -2447.6465   -3245.4126   -7414.0115    616.05045   -8479.7302    4849.6068    19.097842    19.097842    19.097842            0            0            0    2.1484826 
 5200000    2508.8058   -41802.001    12737.128    9782.2329    16445.405    11983.747    490.87359    7346.1151   -7483.7241    18.867332    18.867332    18.867332            0            0            0     2.228195 
 5300000     2498.334   -41353.813   -6468.6598   -143.41929   -13228.136    -6034.424    1961.6779    10575.751   -4169.4502    19.256584    19.256584    19.256584            0            0            0     2.095786 
 5400000    2430.7782   -41799.979   -3600.3631    1767.5672   -11880.204    -688.4527    6920.6422   -8102.2463    -4271.982    19.195037    19.195037    19.195037            0            0            0    2.1160107 
 5500000    2506.6415   -41748.243    8310.3747     9376.361    5668.0058    9886.7572    2830.8251   -5766.9643     -2473.98    18.832712    18.832712    18.832712            0            0            0    2.2405059 
 5600000    2420.3638   -41480.556    -6813.865   -1590.2043    2753.0575   -21604.448    1107.8785   -132.89222   -5507.8515    19.111595    19.111595    19.111595            0            0            0    2.1438476 
 5700000    2550.3315   -41749.677    12084.903    15067.907    12041.961    9144.8417   -6490.6834    2977.7819    -1781.607    18.875179    18.875179    18.875179            0            0            0    2.2254171 
 5800000    2404.6518   -41753.937    8577.9429    3976.1659    13743.534    8014.1288    8651.3041   -1553.0813   -206.06755    19.163028    19.163028    19.163028            0            0            0    2.1266318 
 5900000    2421.0931   -41725.175    9074.6808     18221.07    5612.2093    3390.7629    7908.9657    1937.9367    11772.527    18.934121    18.934121    18.934121            0            0            0    2.2046989 
 6000000    2327.2941   -41843.263     6576.969   -1592.8153    13104.504    8219.2185   -5071.1301   -5373.2153   -655.18118    18.890148    18.890148    18.890148            0            0            0    2.2201309 
 6100000    2478.3328   -42071.925    10197.345    24708.801    4836.4541    1046.7805   -498.84941    2484.3304    3509.9359     19.00601     19.00601     19.00601            0            0            0    2.1797759 
 6200000    2426.0581   -41989.184    11483.587    28758.558    13492.598   -7800.3939    116.62545   -830.32578   -308.51127    18.819028    18.819028    18.819028            0            0            0     2.245397 
 6300000    2367.9208   -41751.052    3442.1987    9746.5201    6449.5623   -5869.4864    15291.101    -11055.38   -4468.1442    19.298199    19.298199    19.298199            0            0            0    2.0822571 
 6400000    2467.3942   -41616.771    -3326.823    2152.2321   -4542.0668   -7590.6343   -3867.4587   -4295.1414   -2668.3604    19.351251    19.351251    19.351251            0            0            0    2.0651782 
 6500000    2444.5021   -42257.691   -827.15989   -795.90273    961.93094   -2647.5079   -8386.8683    1021.8638    1507.4625    19.144691    19.144691    19.144691            0            0            0    2.1327485 
 6600000    2236.6869   -41802.427   -2183.5826    3043.4963    424.44693   -10018.691    5623.4232    1845.7919   -1567.8675    19.185745    19.185745    19.185745            0            0            0    2.1190867 
 6700000    2220.2382   -42183.485   -9664.4219   -13116.696   -7481.7892   -8394.7805    3163.0516    12396.599    1914.8307    19.066868    19.066868    19.066868            0            0            0    2.1589702 
 6800000    2167.8359    -42096.69   -966.69987   -9061.2138    1991.8249    4169.2894   -5367.8675   -7223.9309    1233.2007    19.088219    19.088219    19.088219            0            0            0    2.1517334 
 6900000    2300.9998   -42104.932    3307.6047    13516.399    6801.5136   -10395.098    1991.0285    6830.0083   -123.21517     19.04345     19.04345     19.04345            0            0            0    2.1669445 
 7000000    2321.7591   -42105.547   -5264.0525   -8636.7978   -343.85074    -6811.509   -5635.5025    3536.7258   -6617.5109    19.148752    19.148752    19.148752            0            0            0    2.1313916 
 7100000    2216.2094   -42079.734    2618.7798    12074.831   -5779.9137    1561.4216   -3301.2832   -1463.6755   -6624.5244    19.031861    19.031861    19.031861            0            0            0    2.1709056 
 7200000    2318.1295   -41850.128    8973.6749    5373.9948    12591.336    8955.6937   -7493.3347    9309.2193   -4178.9526    19.047389    19.047389    19.047389            0            0            0    2.1656004 
 7300000    2162.7707   -42227.702    5967.7893    20113.848    4126.4591   -6336.9397   -795.38203    13609.635   -4104.1105    18.960612    18.960612    18.960612            0            0            0    2.1954706 
 7400000    2252.7269   -42227.829   -5022.0888   -10648.945   -4017.3891   -399.93233   -1812.8561   -1375.3546    4997.8361    19.109654    19.109654    19.109654            0            0            0    2.1445009 
 7500000    2282.5673   -42035.814   -15506.025   -16279.623    -12779.71   -17458.741    7767.4784    6245.0876    917.37101    19.055135    19.055135    19.055135            0            0            0    2.1629605 
 7600000    2214.7511   -42504.365   -7011.3148   -8316.2515    6060.5467    -18778.24    -272.8635   -347.19575   -2467.2397    19.147334    19.147334    19.147334            0            0            0    2.1318651 
 7700000    2146.1039   -42459.743    -1016.725      3194.67    -5743.314   -501.53082    1025.3286      170.199    5040.3426    19.150945    19.150945    19.150945            0            0            0    2.1306597 
 7800000    2273.8009   -42640.011   -4514.9029    3019.8389   -2458.4992   -14106.048    9238.9128    2485.3555    2480.5265    19.234342    19.234342    19.234342            0            0            0    2.1030651 
 7900000    2212.1541   -42338.878    3576.5091    7966.3917   -3048.8631    5811.9987   -5838.2555   -4842.6306    3546.1625    19.063562    19.063562    19.063562            0            0            0    2.1600934 
 8000000    2319.2627   -42501.403   -1557.0224    2875.6056    -4925.833   -2620.8398   -3371.1955   -1543.7283   -6633.8638    19.168101    19.168101    19.168101            0            0            0    2.1249437 
 8100000    2108.6096   -42307.998   -10217.341   -13848.354   -2337.3126   -14466.356    404.89536    -1705.163   -2428.0424    19.030232    19.030232    19.030232            0            0            0    2.1714632 
 8200000    2371.1981   -42218.969   -784.46804   -13518.086    13885.534   -2720.8524    6095.7495   -7673.3228   -2210.6758    19.180566    19.180566    19.180566            0            0            0    2.1208035 
 8300000    2116.0453   -42705.151   -6725.3219   -13011.955   -5130.4712   -2033.5395    7272.8918    5985.6322   -10964.511    19.059857    19.059857    19.059857            0            0            0    2.1613534 
 8400000    1982.7308    -42236.83    12579.206    11932.115     5498.859    20306.645    1178.4568   -3835.3596    6024.9075    18.778596    18.778596    18.778596            0            0            0    2.2599319 
 8500000    2030.4924   -42727.294     6265.004    4069.1898    8571.6051     6154.217   -3154.6741    5759.2632   -12666.756    18.960639    18.960639    18.960639            0            0            0    2.1954612 
 8600000    2176.2662   -42646.495    14882.475    14066.696    17474.498     13106.23   -2786.2848    3842.8193   -59.954916     18.94418     18.94418     18.94418            0            0            0    2.2011886 
 8700000    2036.7626   -42896.389    625.52891     9550.243   -9199.2195    1525.5633    -2227.184    3543.7983    3272.3032    18.703079    18.703079    18.703079            0            0            0    2.2874171 
 8800000    2016.0588   -42386.022   -850.95775    -1136.936    3509.7006   -4925.6378    2971.7069   -4695.8675    -5.854576    19.019833    19.019833    19.019833            0            0            0    2.1750266 
 8900000    2318.9887   -42424.406   -5868.9681   -9947.7558    1798.0045   -9457.1529    3689.4864   -6538.8567     6.784176    19.185873    19.185873    19.185873            0            0            0    2.1190443 
 9000000    2025.8163   -42893.574   -9347.2743   -9202.8886   -12477.417   -6361.5171   -2231.0367    -7061.982    6059.6729    18.891591    18.891591    18.891591            0            0            0    2.2196222 
 9100000    2094.5189   -42930.929     2006.055   -11747.258    16575.301    1190.1214    240.91843   -9012.5542    6418.6071    18.901139    18.901139    18.901139            0            0            0    2.2162604 
 9200000    2091.9801   -42789.012   -8743.1203   -2580.6315   -14556.465   -9092.2646    10688.737    1991.4037   -4734.4709    19.069946    19.069946    19.069946            0            0            0    2.1579247 
 9300000    2178.2074   -42680.727    5898.1696   -1760.6189    7570.9651    11884.163    11223.643   -4468.7143    1552.9775    19.154555    19.154555    19.154555            0            0            0    2.1294552 
 9400000    1995.6159   -43111.743   -3159.0197   -1020.7123   -12141.372    3685.0248    1764.9631    1046.9886   -505.95565    18.955263    18.955263    18.955263            0            0            0    2.1973298 
 9500000    2021.3579   -42880.854   -8172.4379   -6525.2707   -13015.288   -4976.7549    1226.5628    4296.7688    3130.5155    19.101427    19.101427    19.101427            0            0            0    2.1472731 
 9600000    1872.0994   -43142.305   -4080.8202     1205.717   -13020.178   -427.99978   -1409.9715    6422.2376    5614.3128    18.854411    18.854411    18.854411            0            0            0    2.2327793 
 9700000    2046.4981   -42840.154    9388.7242    10588.955      1664.02    15913.198   -6477.5751   -10804.455   -14722.542    18.800007    18.800007    18.800007            0            0            0    2.2522193 
 9800000    1961.1283   -43141.996   -2305.6049   -1624.9309     3579.453   -8871.3368    6276.4269   -3918.2065    -10596.87    18.868276    18.868276    18.868276            0            0            0    2.2278607 
 9900000    2008.4071   -42917.183    1548.9091    2971.7042    1442.4531    232.57003   -675.60855   -99.805658   -1928.4038    19.074305    19.074305    19.074305            0            0            0    2.1564456 
10000000    1993.7618   -42845.445    6973.6675      1489.13    9975.5657    9456.3068    3830.5855    4421.2441   -9086.9653    18.932014    18.932014    18.932014            0            0            0    2.2054349 
10100000    2060.1042    -42929.48    2738.9143    10371.625   -2632.5303    477.64841    5915.5837    3421.6187   -1283.8215    18.944048    18.944048    18.944048            0            0            0    2.2012345 
10200000    1982.0124   -43223.161    3519.8405   -2526.4294    10230.008    2855.9425    8162.7217   -6555.0916   -3024.9521    18.994573    18.994573    18.994573            0            0            0    2.1837156 
10300000    1988.4554   -43011.941    7290.4549    6918.8433     8957.929    5994.5925   -11224.556   -719.86148    905.89418    18.990167    18.990167    18.990167            0            0            0    2.1852358 
10400000    1998.2698   -43167.162   -7313.7606   -16657.229   -4428.5981   -855.45426   -3072.7479   -274.07871    1643.7661    19.143895    19.143895    19.143895            0            0            0    2.1330143 
10500000    1985.9385   -43371.773   -605.00536    3149.0753   -8217.7363    3253.6449    2910.2285   -6239.9417   -7112.6852    18.971803    18.971803    18.971803            0            0            0    2.1915878 
10600000     1881.407   -42986.754   -3278.1904    5246.0675    -10825.45   -4255.1887    5623.5226    3761.3255     6093.482     18.92327     18.92327     18.92327            0            0            0    2.2084934 
10700000    2017.5902   -43337.878    3731.7704    2654.7474   -3084.0258     11624.59    10265.482    9636.6678    1773.1466    19.022856    19.022856    19.022856            0            0            0    2.1739899 
10800000    1966.3584   -43354.915   -2979.8034    421.28029   -6497.3102   -2863.3804    70.040359   -2739.2221    7882.8429    18.907683    18.907683    18.907683            0            0            0    2.2139601 
10900000    1949.0934   -43185.918   -2706.6123   -9887.5046   -286.49651    2054.1641    788.86165    2183.6835    3129.8213    18.941158    18.941158    18.941158            0            0            0    2.2022422 
11000000    1963.7649   -43329.396   -6131.1117   -8006.7488    3417.4997   -13804.086    8583.5112    955.07749    2403.6478    18.949535    18.949535    18.949535            0            0            0    2.1993231 
11100000    1845.3585   -43379.513   -4443.9926   -1570.4238   -2072.6851    -9688.869   -7185.4171    2534.8945   -2714.3812    18.945027    18.945027    18.945027            0            0            0    2.2008933 
11200000    1914.8019   -43363.812   -15643.975   -16818.795   -12640.225   -17472.907   -1101.7959   -9789.1917   -858.89206    19.080752    19.080752    19.080752            0            0            0    2.1542605 
11300000    1753.5636   -43541.198    594.68611    2089.4264   -3347.6025    3042.2345   -378.25218   -72.193799    8902.1835    18.988423    18.988423    18.988423            0            0            0    2.1858382 
11400000    1793.3935   -43401.137   -6404.8429     -5817.15   -4007.3997   -9389.9789   -2264.8211    2989.5927   -7925.8698    18.757451    18.757451    18.757451            0            0            0    2.2675834 
11500000    1920.2809   -43541.402   -10712.458   -985.98022   -10712.986   -20438.407    4905.6609   -8445.6559   -7886.4324      19.1675      19.1675      19.1675            0            0            0    2.1251435 
11600000    1831.2809   -43630.008    2582.0345    6627.0391   -8792.8994    9911.9638    2.1158421     9502.964   -1797.2326    18.998236    18.998236    18.998236            0            0            0    2.1824528 
11700000    1848.6814   -43659.574    5665.1322    352.67876    4637.1971    12005.521    6842.9262   -4427.7409    1953.4174    18.790636    18.790636    18.790636            0            0            0    2.2555907 
11800000    1895.1926   -43498.169    2359.9741    9672.9194    -5390.091    2797.0938   -5883.2463    3021.4166    8981.5609    18.875307    18.875307    18.875307            0            0            0     2.225372 
11900000    1743.9577   -43564.177    5107.8767    2055.0108   -9167.7006     22436.32    1580.7534   -4891.3766    3364.4775    18.769712    18.769712    18.769712            0            0            0    2.2631422 
12000000    1778.4474   -43391.742   -6773.9915   -8189.9264   -5712.8977   -6419.1504    1841.9018   -1614.5731     1131.291    19.159512    19.159512    19.159512            0            0            0    2.1278026 
12100000    1852.9714   -43438.882   -5679.1747   -5699.9367   -4322.6921   -7014.8953   -4444.1466    2548.0595    783.55743    19.093888    19.093888    19.093888            0            0            0    2.1498176 
12200000    1621.8637   -43567.414   -11082.726   -6718.5942   -18893.592   -7635.9915    4236.2615    101.13649   -1452.0163    18.977891    18.977891    18.977891            0            0            0    2.1894795 
12300000    1696.6053    -43910.85   -2394.5956    6449.1987   -9452.1518   -4180.8336   -3757.4815   -2341.4729    1644.6301    18.928151    18.928151    18.928151            0            0            0    2.2067854 
12400000    1915.6173   -43679.944   -3447.4383   -9635.9885    3764.5285   -4470.8547   -1263.1855    1049.8476    4129.7176    18.954847    18.954847    18.954847            0            0            0    2.1974744 
12500000    1705.5494    -43740.02   -3716.3731   -6044.5655    3159.4123    -8263.966   -1634.3566   -7649.3827   -1745.6326    18.839101    18.839101    18.839101            0            0            0    2.2382273 
12600000    1730.9607   -43804.626    1170.0665   -488.47663    6496.6792    -2498.003   -8610.8088    845.13648   -3449.6853    18.898537    18.898537    18.898537            0            0            0     2.217176 
12700000    1681.1139   -43832.643   -5132.5825   -6703.7658   -11587.099    2893.1175   -1799.6641    3782.9058    -11783.58    18.962939    18.962939    18.962939            0            0            0    2.1946626 
12800000    1774.7188   -43816.035    5686.5752    1265.8863    8202.6023     7591.237   -1748.1209    770.57196    1455.3228    18.820232    18.820232    18.820232            0            0            0    2.2449659 
12900000    1671.2584   -43725.968   -2260.4196   -10812.919    4932.5925   -900.93223   -534.87837    2869.6062    4278.4613    19.052354    19.052354    19.052354            0            0            0    2.1639079 
13000000    1640.7944   -43761.594    800.96929   -9121.0696    12708.419   -1184.4412   -1436.5451    1650.7187   -5394.8557    18.973611    18.973611    18.973611            0            0            0    2.1909615 
13100000    1668.7138   -43807.125   -275.52505   -4085.4551    2034.0543    1224.8257   -1622.9482     16200.55    6023.3089    18.974142    18.974142    18.974142            0            0            0    2.1907773 
13200000    1760.3579   -43667.329   -2940.0736     12.40123   -6779.6593   -2052.9628    4170.3676    10557.313   -350.97229    18.947135    18.947135    18.947135            0            0            0    2.2001588 
13300000    1707.3103   -44144.643   -2703.9392   -14659.837   -664.54571    7212.5647   -2132.5843    2284.5925      262.832    18.908775    18.908775    18.908775            0            0            0    2.2135765 
13400000    1630.8851   -44039.964    5033.2317    10141.267    2628.7294    2329.6988   -2016.7335   -19820.636    1282.3277    18.970572    18.970572    18.970572            0            0            0    2.1920145 
13500000    1600.3894   -44043.952   -8139.6386   -6620.0001   -10680.016   -7118.8996    27.346354   -4072.4966    9824.8049    18.928679    18.928679    18.928679            0            0            0    2.2066008 
13600000    1639.3443   -44021.863   -434.08297    1388.5069   -1530.2314   -1160.5244    3260.1334   -4936.8332    1705.0783    18.895887    18.895887    18.895887            0            0            0    2.2181087 
13700000    1618.9933   -44110.445   -9599.3974   -4330.7767   -17680.282   -6787.1338   -5313.9078    3334.5014    2316.0901    19.070798    19.070798    19.070798            0            0            0    2.1576357 
13800000    1659.9529   -44114.595    5821.3779    2942.3228    11003.899    3517.9122    3763.7374   -12412.098   -4710.0847    19.062725    19.062725    19.062725            0            0            0     2.160378 
13900000    1553.4248   -44117.692    11756.134    6634.7414     21063.43    7570.2299   -3323.2726   -17638.369    4553.3855    18.860033    18.860033    18.860033            0            0            0    2.2307832 
14000000    1499.8458   -43946.413    4850.5953   -7467.0855    16334.122    5684.7499   -2368.1092    -4770.911    6467.8487    18.952475    18.952475    18.952475            0            0            0    2.1982999 
14100000    1521.5245    -44126.05   -3328.7686    2863.1617    -6917.378   -5932.0896     12780.22    -7322.405    6028.8255    18.942802    18.942802    18.942802            0            0            0    2.2016689 
14200000    1639.0982   -44067.216   -1709.8484   -8863.5556   -265.08012    3999.0905    1170.6176   -5620.4397    2425.1078    18.859347    18.859347    18.859347            0            0            0    2.2310266 
14300000    1534.5884   -44194.352   -6814.1602   -17874.993   -9593.1929    7025.7048    1752.1978   -1022.4078    515.03265    18.949635    18.949635    18.949635            0            0            0    2.1992884 
14400000    1525.1124   -44142.574   -2990.6853   -4062.4516   -4632.3247   -277.27962    2096.8178   -7257.6288    5553.2548    19.027953    19.027953    19.027953            0            0            0    2.1722433 
14500000    1560.1764   -44120.851    217.00581    838.09259    2828.6917   -3015.7669    217.62058   -4222.6662   -3953.1732     18.80832     18.80832     18.80832            0            0            0    2.2492342 
14600000    1557.8343   -44197.147    2442.2533   -1086.1418    6354.6422    2058.2596   -2193.2811    874.11025    10929.228    18.883319    18.883319    18.883319            0            0            0    2.2225408 
14700000    1621.7615   -44147.975   -2020.5382    -4408.661    3620.0216   -5272.9753   -7287.1487   -2967.8348    1613.3084    18.893008    18.893008    18.893008            0            0            0     2.219123 
14800000    1543.9365   -44246.406   -2440.2012   -8036.5557    2325.2972   -1609.3452    1197.9267   -878.94405    4435.3692    18.993833    18.993833    18.993833            0            0            0    2.1839708 
14900000    1676.8689   -44335.623    2915.1224   -2081.7387    4539.8965    6287.2094     5128.622    7704.0154   -5571.6974    18.984232    18.984232    18.984232            0            0            0    2.1872862 
15000000    1428.3867   -44254.225   -9695.8996    905.14659   -12080.087   -17912.759    -2470.821    8145.5479   -724.61353    18.942264    18.942264    18.942264            0            0            0    2.2018568 
15100000    1478.2424   -44294.727   -9295.8157   -16105.132   -7788.9583   -3993.3571   -4423.0974    2003.3175    886.11138    18.921821    18.921821    18.921821            0            0            0    2.2090011 
15200000    1382.7433   -44429.504    1615.4674   -4811.7958    3457.0726    6201.1253   -2000.1695    6507.1455    1298.1539    18.865589    18.865589    18.865589            0            0            0    2.2288127 
15300000    1415.6428   -44454.213   -3527.4214   -15571.216    4018.4892    970.46315   -1723.7366   -7176.4305    7360.7397    18.947547    18.947547    18.947547            0            0            0    2.2000153 
15400000    1406.6114   -44283.714   -11451.259   -12078.162     -19455.6   -2820.0146    -7564.517    4964.9745   -552.47311    18.991499    18.991499    18.991499            0            0            0    2.1847761 
15500000    1583.3573   -44324.997   -7648.9865   -14007.795    -1423.219   -7515.9451      7808.21   -5694.9902    1637.5956    18.972122    18.972122    18.972122            0            0            0    2.1914773 
15600000    1285.6969    -44365.61   -10477.003   -20573.182    -3049.856   -7807.9712   -1587.6807   -3169.2296   -6258.1144     19.04009     19.04009     19.04009            0            0            0    2.1680919 
15700000    1307.0782   -44461.537   -15481.782   -19754.206   -7704.6184   -18986.523   -2248.3579   -6957.2288     4513.991    18.987667    18.987667    18.987667            0            0            0    2.1860992 
15800000    1413.9082   -44450.132    1267.9913    6044.7086     4086.307   -6327.0417    4876.5965    2727.9792    -3759.135    18.881067    18.881067    18.881067            0            0            0     2.223336 
15900000    1431.5197   -44343.705   -1562.0923   -7150.3133    5749.9256   -3285.8891   -975.15113   -10876.609   -628.52843    18.815661    18.815661    18.815661            0            0            0    2.2466028 
16000000    1404.5262   -44437.675   -6581.6506   -10116.346    1461.8635   -11090.469    1327.9349   -3946.7949    1715.7568    18.936802    18.936802    18.936802            0            0            0    2.2037624 
16100000    1409.0249   -44429.097   -15075.735   -23929.055    768.14503   -22066.294   -7508.9049   -2625.3947    8109.5937    19.034106    19.034106    19.034106            0            0            0    2.1701374 
16200000    1398.2069   -44451.639    784.47514   -5474.8516    11384.249   -3555.9723   -4417.4159    4087.1772   -7561.7653    19.003194    19.003194    19.003194            0            0            0    2.1807452 
16300000    1414.9151   -44344.098   -4644.8422   -9952.2811   -977.88515   -3004.3604   -2991.7142   -4521.3939    2471.8326    19.025638    19.025638    19.025638            0            0            0    2.1730364 
16400000    1394.7807   -44513.622    841.03955   -3112.1538    8296.1479   -2660.8755   -4975.9958    3262.8152    6381.6035    18.881956    18.881956    18.881956            0            0            0    2.2230219 
16500000    1256.3715   -44535.442    -24253.25   -24116.308   -16046.592   -32596.849    10160.527    636.47306    3804.7557    19.009797    19.009797    19.009797            0            0            0    2.1784734 
16600000    1419.1259   -44526.648    4585.6281   -1102.2395    4814.2286    10044.895    361.44512    2405.2089    5734.7367    18.944915    18.944915    18.944915            0            0            0    2.2009324 
16700000    1278.1275   -44650.736   -8279.2973   -8132.7004   -5821.9262   -10883.265    -5768.649   -4187.7318   -559.76967    18.965258    18.965258    18.965258            0            0            0    2.1938577 
16800000    1277.0323    -44614.86    3966.8702    7291.5526    5645.2624   -1036.2042     896.5456   -1945.0493    2868.1316    18.888302    18.888302    18.888302            0            0            0    2.2207822 
16900000    1374.9321   -44569.367    4869.2071    1960.9416    8869.7407     3776.939   -9139.1951   -2076.8296   -3429.7027    18.865216    18.865216    18.865216            0            0            0    2.2289449 
17000000    1375.1918   -44636.023    1230.1477   -5740.6167    7308.6582    2122.4017    8668.0314    -4601.172    86.199765    18.937178    18.937178    18.937178            0            0            0    2.2036311 
17100000    1302.9596   -44631.529    1602.0355   -11527.158     17232.63   -899.36499    2278.0695    3582.7188   -4308.1159    18.915797    18.915797    18.915797            0            0            0    2.2111123 
17200000    1285.8284   -44699.444    1743.0604    3066.2929    1576.5787    586.30961    5079.9829    8201.3484   -4787.9267    18.948825    18.948825    18.948825            0            0            0    2.1995701 
17300000    1295.5843   -44629.466   -1290.6215    -7048.586    7657.2876   -4480.5661   -7867.6714   -12359.316   -1207.5736    18.919257    18.919257    18.919257            0            0            0    2.2098992 
17400000    1312.9778   -44617.101    447.98077    2841.4416   -146.71042   -1350.7889    1432.9479   -5521.0958     3164.738    18.860577    18.860577    18.860577            0            0            0    2.2305903 
17500000    1298.7834   -44674.143    746.82084    6962.4035   -9829.0705    5107.1295    4817.0247   -2309.7429    86.613736    18.890436    18.890436    18.890436            0            0            0    2.2200297 
17600000    1199.5333   -44604.792   -3688.4925   -10033.351   -3601.3139    2569.1874   -5580.0653    -1303.603   -646.56821     18.85014     18.85014     18.85014            0            0            0    2.2342972 
17700000    1274.8517   -44753.693    6919.2165    10503.702   -208.33604    10462.284    -1216.737    7235.8669    4052.9183    18.878603    18.878603    18.878603            0            0            0    2.2242066 
17800000    1235.7934   -44738.409   -1461.2849   -2064.6548   -2980.2027    661.00286    2644.9571    5474.9782    3953.2287    18.957231    18.957231    18.957231            0            0            0    2.1966457 
17900000    1199.9864   -44766.806   -5267.4498   -13047.039    829.93366   -3585.2442   -4336.6346    8460.6542   -851.52365     18.94827     18.94827     18.94827            0            0            0    2.1997635 
18000000    1154.0083   -44797.699    1826.9622   -947.92856    7560.0491    -1131.234   -1402.4103   -1189.5965    5028.6864    18.936985    18.936985    18.936985            0            0            0    2.2036985 
18100000    1164.2158    -44888.64    2138.9321    2506.8389    8581.2147   -4671.2574   -777.77383    624.01918    1220.0188     18.92661     18.92661     18.92661            0            0            0    2.2073247 
18200000    1182.5507   -44863.114   -1528.0415   -6638.5563    4707.5648   -2653.1329    1399.4724   -2705.9616    1249.0282     18.98349     18.98349     18.98349            0            0            0    2.1875425 
18300000    1219.4221   -44857.092    3200.9342   -1426.4652    12292.081   -1262.8132   -5942.7362    -1567.128   -2716.7897    18.867291    18.867291    18.867291            0            0            0    2.2282096 
18400000    1192.1147   -44790.427   -2697.4235   -7126.5358     1365.294   -2331.0288    -7613.274    492.83103   -1916.8101    18.964351    18.964351    18.964351            0            0            0    2.1941725 
18500000    1190.4551   -44807.644   -1516.9289   -11369.985    4501.5577    2317.6402   -2756.1804   -2236.3364   -1650.7748    18.913296    18.913296    18.913296            0            0            0    2.2119894 
18600000    1171.7661   -44832.031   -1849.1705    -6531.381    9948.9203   -8965.0509   -2209.6708   -4828.0545    1722.2504    18.846147    18.846147    18.846147            0            0            0    2.2357177 
18700000    1160.0812   -44875.574   -6862.9867   -16203.695    2370.5506   -6755.8161    1350.7922    4768.2831    1253.6822    18.935353    18.935353    18.935353            0            0            0    2.2042685 
18800000    1077.0252   -44882.683   -3129.8654   -3882.3815    1510.6186   -7017.8332    4822.4544    763.80319   -3711.0174    18.972088    18.972088    18.972088            0            0            0     2.191489 
18900000    1120.6654   -44781.811    2123.2462    1127.0891     8234.811   -2992.1613    3620.2971   -322.23501   -1388.0573    18.913658    18.913658    18.913658            0            0            0    2.2118623 
19000000    1064.9049   -44935.124   -3401.4551   -11433.388   -4111.6395    5340.6626     223.1566   -6213.8011    1558.6973    18.937478    18.937478    18.937478            0            0            0    2.2035265 
19100000    1063.8371   -44897.026   -1539.7858   -4505.5751    3432.3412   -3546.1235   -4105.9995    1452.1297    683.86141    18.925045    18.925045    18.925045            0            0            0    2.2078721 
19200000     1035.549   -44895.092     6021.231    2802.1976    10647.092    4614.4034   -3810.2313   -1392.6152   -2149.4637    18.870827    18.870827    18.870827            0            0            0    2.2269573 
19300000    1095.9041   -44933.136     1676.808   -9018.8942    13511.469    537.84921   -10205.112    5303.3388   -2145.5542    18.853867    18.853867    18.853867            0            0            0    2.2329727 
19400000    1002.7318   -44987.166   -2972.3021   -4921.8272    970.35892    -4965.438    1046.1387    333.58671    1340.2824     18.96357     18.96357     18.96357            0            0            0    2.1944437 
19500000    1028.3399   -44854.229    1953.1465   -3788.8912    6126.0585    3522.2722   -3311.3346    5820.5068    848.60075    18.905301    18.905301    18.905301            0            0            0    2.2147969 
19600000    1089.7127    -45008.66   -85.825915   -12049.429    7542.2213    4249.7295    4552.5058    9398.7239    4719.2522    18.892148    18.892148    18.892148            0            0            0    2.2194261 
19700000    1038.1798   -44964.368   -567.10611   -6585.5143    6655.3545   -1771.1586   -4809.6601    4088.3657     -1032.48    18.962954    18.962954    18.962954            0            0            0    2.1946573 
19800000    995.09474   -45004.626     1277.206    -2875.831    7206.0363   -498.58722   -564.43837   -833.19846   -3982.0273    18.965624    18.965624    18.965624            0            0            0    2.1937306 
19900000    1027.6428   -45085.328    -1668.906   -3105.0155    545.12054   -2446.8229   -2868.9711    1701.6628   -1165.9875    18.922552    18.922552    18.922552            0            0            0     2.208745 
20000000    996.03082   -45113.653    9535.9617    12041.142    12718.561    3848.1823   -599.04155   -7114.3613    3155.2536    18.896576    18.896576    18.896576            0            0            0    2.2178662 
20100000    971.32576   -45103.084   -9874.2925   -8028.8685   -7210.4745   -14383.535   -4233.4066     1577.638    5270.1309    18.984078    18.984078    18.984078            0            0            0    2.1873393 
20200000    999.36879   -45023.036    1282.6282     3517.851    8006.4597   -7676.4261   -3843.5735    1432.1133    1864.4266    18.957392    18.957392    18.957392            0            0            0    2.1965895 
20300000     956.3012   -45087.392   -2861.0519   -8141.7276    3642.4088    -4083.837   -340.38052    8442.6784    5116.9916    18.943948    18.943948    18.943948            0            0            0    2.2012695 
20400000    958.31623   -45189.264    6429.8495   -1625.5643    12690.288    8224.8244    -7855.064   -393.88566    -3410.915    18.967833    18.967833    18.967833            0            0            0    2.1929643 
20500000    938.19328   -45133.377    8827.5367    6624.0329    6640.1674     13218.41   -888.49282   -798.14738    1623.3779    18.928454    18.928454    18.928454            0            0            0    2.2066796 
20600000    932.80435    -45169.94   -2447.9825   -4506.2073   -5424.8386    2587.0986   -3024.2824   -2036.3052   -1681.1477    18.874648    18.874648    18.874648            0            0            0     2.225605 
20700000    929.43694    -45168.52    4749.3021   -3110.7343    15490.528    1868.1122   -2009.6945   -1297.9665    3163.1633    18.892541    18.892541    18.892541            0            0            0    2.2192876 
20800000    950.25418    -45184.01   -5255.9928   -4494.6266    -5380.694   -5892.6579    570.87463    773.84794    2143.0172    18.881732    18.881732    18.881732            0            0            0    2.2231012 
20900000    940.90699   -45207.824   -4594.0504   -8439.3016    1167.6769   -6510.5264   -2846.2616    4742.0703   -988.28793     18.90928     18.90928     18.90928            0            0            0     2.213399 
21000000    868.91954   -45184.033   -2142.4706   -9854.3537    6579.5309   -3152.5889   -729.84439    1596.3016    83.010358    18.926149    18.926149    18.926149            0            0            0     2.207486 
21100000    852.15706   -45204.838    -4597.327   -7870.1291    -5251.754   -670.09797   -2273.8793    1092.1694    435.02406    18.960823    18.960823    18.960823            0            0            0    2.1953974 
21200000     891.4581   -45231.365   -1316.9405   -7196.9606    6529.9406   -3283.8014   -3654.0032    6052.0376    7434.8217    18.879641    18.879641    18.879641            0            0            0    2.2238397 
21300000    843.08539   -45140.654    1210.6162   -3034.1222    2310.6756    4355.2953   -3606.8837   -3578.6849    1368.3905    18.862228    18.862228    18.862228            0            0            0    2.2300043 
21400000     805.5761   -45262.634    6375.6401   -85.700934    7970.8037    11241.818   -5414.3729   -4094.3335    5387.7878    18.822444    18.822444    18.822444            0            0            0    2.2441746 
21500000    847.26796   -45250.991    8373.4492    11090.343    6576.1418     7453.863   -601.99766   -3880.2382   -821.70352    18.755258    18.755258    18.755258            0            0            0    2.2683786 
21600000    791.35955   -45306.831    -1882.095   -9680.3701    2989.7477    1044.3375   -467.40449    2460.6109    3558.6116    18.897267    18.897267    18.897267            0            0            0    2.2176231 
21700000    821.36526   -45315.333   -5541.1157   -7479.1995   -1503.5547   -7640.5929    390.41765    433.12028    1757.0826    18.966234    18.966234    18.966234            0            0            0     2.193519 
21800000    814.63571   -45285.324     3733.375   -387.09371    12755.952   -1168.7336   -4339.0497   -1539.7049    5055.3173    18.868987    18.868987    18.868987            0            0            0    2.2276089 
21900000    876.22228   -45415.528    794.58673   -6700.9955    6617.9088    2466.8469   -12.975218   -4427.0716   -4662.5736    18.861035    18.861035    18.861035            0            0            0    2.2304276 
22000000    813.00851   -45395.835    737.94671   -2638.5624    4308.3735    544.02901   -1366.9054   -2384.5019   -3881.7583    18.902966    18.902966    18.902966            0            0            0    2.2156179 
22100000    798.86743   -45407.731    5901.4694    531.95766    13055.802    4116.6488   -3801.8694    5684.3849    1421.8427    18.818417    18.818417    18.818417            0            0            0    2.2456157 
22200000    793.75386   -45370.761    1420.2807   -8500.1299    10053.908    2707.0644   -707.51549   -1661.9795   -1912.2108    18.844764    18.844764    18.844764            0            0            0      2.23621 
22300000    791.77172   -45362.109   -1039.9464   -6217.9548      3192.91   -94.794361    3732.0247    3003.0019   -1539.0513    18.838413    18.838413    18.838413            0            0            0    2.2384726 
22400000    773.93745   -45390.467    13169.984    7946.6022    19366.772    12196.579    1840.1325    58.112492   -712.04117    18.782045    18.782045    18.782045            0            0            0    2.2586873 
22500000    730.32876   -45391.222   -461.72204   -12042.771    5506.9318     5150.673    -4953.715   -3415.3338    408.25556    18.864329    18.864329    18.864329            0            0            0    2.2292595 
22600000    734.82528   -45443.453    -821.0241    121.05192    2732.0816   -5316.2058   -2428.9871    943.00626   -1874.1246    18.896496    18.896496    18.896496            0            0            0    2.2178944 
22700000    691.53335   -45336.019    191.86691   -7793.9967    6097.3371    2272.2603   -5111.1129   -453.40732    4965.3418    18.843269    18.843269    18.843269            0            0            0    2.2367424 
22800000    690.90063   -45414.708    2376.3243    -836.7529    6884.3412    1081.3844   -207.53067    2930.7779   -2682.1592    18.879531    18.879531    18.879531            0            0            0    2.2238788 
22900000    737.80088   -45489.206    4559.6968    1916.2322    10262.576    1500.2819    2615.9026    959.03045    1427.6592    18.867739    18.867739    18.867739            0            0            0    2.2280511 
23000000    707.65369   -45509.707   -1494.6905   -3088.5335   -2136.4707     740.9326    3906.7467    5805.0523   -802.06221    18.875879    18.875879    18.875879            0            0            0    2.2251696 
23100000    717.43395   -45438.062    5150.9515    2092.2366    8669.5423    4691.0756   -1173.0223   -832.34509   -631.04229    18.830159    18.830159    18.830159            0            0            0    2.2414175 
23200000    692.17093   -45513.905   -500.92952    777.16955    2908.6825   -5188.6406    2638.6486    4196.3075    1230.2705    18.963196    18.963196    18.963196            0            0            0    2.1945734 
23300000    652.96292   -45479.335    1744.8799   -4606.6486    7301.5493    2539.7389    3797.0994   -5290.9438    3442.5912    18.891117    18.891117    18.891117            0            0            0    2.2197896 
23400000    644.94961   -45502.315    3150.1445    1937.0359    9320.4168   -1807.0192    2030.5913   -962.37149    1261.7675    18.920718    18.920718    18.920718            0            0            0    2.2093875 
23500000    653.46359    -45587.43    2256.3005    -10097.07     16792.15    73.821934    2029.0748    538.32129   -153.08126    18.856183    18.856183    18.856183            0            0            0    2.2321498 
23600000    658.24132   -45514.928    6712.1539    5223.5429    8362.6287      6550.29    4058.2118   -3149.3621    648.74877    18.801385    18.801385    18.801385            0            0            0    2.2517241 
23700000    665.32346   -45582.533    1329.9181   -3223.5149    8666.5342    -1453.265   -5840.7568    -1311.137    3046.0307    18.900888    18.900888    18.900888            0            0            0    2.2163487 
23800000    615.85828    -45575.76   -2816.0563   -2833.8553    5263.8147   -10878.128   -4648.7335    3050.3302    768.53382    18.884331    18.884331    18.884331            0            0            0    2.2221834 
23900000    630.39746   -45643.782   -1999.3409   -2398.6746    1096.1239    -4695.472    6008.8384   -3050.4497    1979.0619    18.893988    18.893988    18.893988            0            0            0    2.2187776 
24000000    569.75074   -45617.806   -3772.8018   -5869.1524   -1430.8831   -4018.3699   -2652.8242    2267.9435    564.38875    18.849476    18.849476    18.849476            0            0            0    2.2345334 
24100000    599.41704    -45605.89    269.53889   -1698.9788    4870.4445    -2362.849   -2918.4136   -1116.2246    5973.5581    18.875881    18.875881    18.875881            0            0            0     2.225169 
24200000    558.46863   -45713.318    2497.0168   -5857.4603    14715.689   -1367.1783   -4966.0583    -962.1629     1134.939    18.895999    18.895999    18.895999            0            0            0    2.2180694 
24300000    551.89694   -45654.562     300.7668   -2160.0419    7653.2465   -4590.9041    844.00871    3489.8256    4780.6993    18.915793    18.915793    18.915793            0            0            0    2.2111135 
24400000    557.01625   -45615.731   -8596.0101   -18364.678   -165.74727   -7257.6049   -725.21872   -4469.1056    1529.7972    18.913799    18.913799    18.913799            0            0            0    2.2118131 
24500000    512.07365   -45701.656   -9417.8856   -10856.085   -8940.3963   -8457.1755   -1787.1502   -2581.8814    5144.9577    18.932114    18.932114    18.932114            0            0            0    2.2054002 
24600000    528.19863   -45700.081   -1380.7773   -4643.1912   -686.27466    1187.1339    3130.2753    1546.7181    4502.7552     18.92229     18.92229     18.92229            0            0            0    2.2088368 
24700000    556.45535   -45752.264   -2898.4134   -5879.3071    2398.2066   -5214.1396   -1857.2955    225.05816   -603.62122    18.931429    18.931429    18.931429            0            0            0    2.2056394 
24800000    536.90181   -45731.591    3464.0304   -64.913569    10146.544    310.46076    -2972.423   -2684.0348    738.87262    18.837679    18.837679    18.837679            0            0            0    2.2387341 
24900000    508.00543   -45769.041    245.22697   -3602.8746    5464.1759   -1125.6205   -1337.8143    -97.69032    2127.0263    18.879412    18.879412    18.879412            0            0            0    2.2239208 
25000000    483.82688   -45778.685    -596.1193   -2374.8479     2412.584    -1826.094   -1107.7221   -45.847437    2917.0215    18.899428    18.899428    18.899428            0            0            0    2.2168623 
25100000    478.97413   -45746.094    1544.4405   -6474.0952    7584.0551    3523.3616   -4682.4366    378.54296    2612.9171    18.856317    18.856317    18.856317            0            0            0    2.2321022 
25200000    461.14344    -45790.86    -2822.896   -9966.2935    8372.9051   -6875.2996   -1317.4321   -3009.2266    2581.4826    18.863848    18.863848    18.863848            0            0            0    2.2294299 
25300000    496.49385   -45824.508   -483.60426   -1050.3477    4490.3987   -4890.8638    463.57898    -1525.853    5510.9528    18.901217    18.901217    18.901217            0            0            0    2.2162328 
25400000    460.76495   -45828.966    214.12167   -1643.2471     3727.573   -1441.9609    579.12115    1125.0494    2595.0062    18.894283    18.894283    18.894283            0            0            0    2.2186739 
25500000    440.60317   -45831.497    295.25522    481.38949   -728.22508    1132.6012     1744.545   -2737.4992    856.30228    18.879954    18.879954    18.879954            0            0            0    2.2237293 
25600000    459.87584   -45828.282   -855.36748   -8708.6066    5549.9579    592.54626    2346.9196   -1946.8636    2210.1858    18.903565    18.903565    18.903565            0            0            0    2.2154072 
25700000    427.25977   -45858.228    2691.8232   -3509.3462    5242.1468    6342.6688   -1033.6262   -1277.2954    5307.9612    18.924441    18.924441    18.924441            0            0            0    2.2080837 
25800000    436.65203   -45846.224   -5059.3697   -10128.475    1637.4847   -6687.1185   -2764.5071    779.64463   -3005.1121    18.926903    18.926903    18.926903            0            0            0     2.207222 
25900000    380.04419   -45854.548    2130.7831   -7537.8139    9080.0104    4850.1528    2126.7473   -615.25098   -1545.3916    18.853153    18.853153    18.853153            0            0            0    2.2332263 
26000000    393.40322   -45915.895   -950.37245   -8986.8772    7199.2628    -1063.503    876.09703    450.86233    2648.3867    18.825086    18.825086    18.825086            0            0            0      2.24323 
26100000    379.78558   -45927.627    2187.9725    2753.8775   -378.96467    4189.0046    3353.9879   -2513.4493    2075.7336    18.910519    18.910519    18.910519            0            0            0    2.2129641 
26200000    363.46528   -45899.404   -645.26485   -7660.1112    3505.6652    2218.6514   -616.26699    1199.8426   -272.10463    18.910275    18.910275    18.910275            0            0            0    2.2130496 
26300000    362.69286   -45948.549   -1227.2987    -3332.941    136.65846    -485.6135    3840.4736     590.5159    4031.2526    18.884976    18.884976    18.884976            0            0            0    2.2219558 
26400000     358.6981   -45964.522    4307.8497    333.14851    10085.828    2504.5729   -2296.6346   -5271.1959   -266.83594    18.846433    18.846433    18.846433            0            0            0     2.235616 
26500000    348.46567   -45968.806   -569.75463   -5435.2796     2281.412    1444.6036    1260.8492   -3916.7794    1385.9288    18.890074    18.890074    18.890074            0            0            0    2.2201571 
26600000    342.76228   -46000.718   -780.89705   -2684.9719     2901.958   -2559.6772    1172.1727   -764.18136    2055.3541    18.881629    18.881629    18.881629            0            0            0    2.2231376 
26700000    339.90037   -46001.182    2282.8686   -1911.7282    7419.0953    1341.2386    1679.9605   -3032.9074     1158.576    18.867344    18.867344    18.867344            0            0            0     2.228191 
26800000    315.13105   -45985.295     3858.684   -3069.7802    12303.646    2342.1865    3014.5805   -2844.8394    910.47185    18.879071    18.879071    18.879071            0            0            0    2.2240412 
26900000     300.3606   -45985.718   -301.55811   -5809.9009    2100.9877    2804.2389    1593.9178   -749.17027    -1912.026    18.878323    18.878323    18.878323            0            0            0    2.2243057 
27000000    286.07632   -46029.007    4364.4053   -167.70812     10318.62    2942.3044    -996.2175   -3830.7807   -2390.1252    18.878254    18.878254    18.878254            0            0            0    2.2243302 
27100000    295.25517   -46043.118   -2900.1224   -5192.4364   -1755.0187   -1752.9123    372.59556   -935.96469   -791.57284    18.884973    18.884973    18.884973            0            0            0    2.2219568 
27200000    293.53064    -46053.55   -5198.6116   -8602.4005   -5251.7128   -1741.7215     3099.626    220.41963    1981.3178    18.924422    18.924422    18.924422            0            0            0    2.2080902 
27300000    273.35193   -46075.246   -3669.6848   -8843.6994    3990.0849   -6155.4398   -189.09272   -1273.8752   -19.422303    18.895441    18.895441    18.895441            0            0            0    2.2182659 
27400000    249.83968   -46096.867   -137.45009   -5058.3951    8694.9741   -4048.9293   -1253.9664    172.16787    1134.5286    18.870419    18.870419    18.870419            0            0            0    2.2271019 
27500000    263.01827   -46125.573   -1043.1353   -5851.8549    4867.1801    -2144.731   -222.46469   -3052.9671   -1059.9499    18.892772    18.892772    18.892772            0            0            0    2.2192063 
27600000    250.75344   -46108.201    -1520.956   -3533.2571    3627.5354   -4657.1464   -856.66115    114.77976    2717.0353    18.870206    18.870206    18.870206            0            0            0    2.2271773 
27700000    244.39606   -46130.143    260.13185   -4078.8193    7263.3389   -2404.1241    871.61673    -1849.334    4407.2715    18.875831    18.875831    18.875831            0            0            0    2.2251867 
27800000    216.49085   -46133.909   -91.216946    -3637.055    6597.9277   -3234.5236     -1082.71   -2575.1042    741.31468    18.883654    18.883654    18.883654            0            0            0    2.2224225 
27900000    208.47952   -46166.018   -450.25969   -1758.3827    1758.1619   -1350.5583    1986.0005   -419.44761    2928.6619    18.882197    18.882197    18.882197            0            0            0    2.2229368 
28000000     198.8229    -46168.82   -3687.2874   -10670.228    4200.7626   -4592.3969   -336.45955     1646.547    1253.3207    18.884596    18.884596    18.884596            0            0            0    2.2220899 
28100000     184.9694   -46186.088      1348.43   -4722.9847    5122.1057     3646.169    747.84958   -1762.0406    2124.1672    18.878609    18.878609    18.878609            0            0            0    2.2242045 
28200000    189.82539   -46197.963    1015.4837   -3138.9418    5670.2264    515.16641    469.89152   -1267.8332    3221.8148    18.854438    18.854438    18.854438            0            0            0    2.2327698 
28300000    179.05005   -46223.609    -1277.755   -4086.5935    2408.9928   -2155.6644   -1716.0924    630.73446   -1290.6768    18.908968    18.908968    18.908968            0            0            0    2.2135085 
28400000    164.44116   -46227.596   -1443.3244   -4168.0375     1040.724   -1202.6598    453.09353   -2870.3821    1044.0902    18.895555    18.895555    18.895555            0            0            0    2.2182258 
28500000    144.22172   -46242.993    -1795.613   -4605.2739    3173.6062   -3955.1713    388.91207   -947.43641    3464.9298    18.908768    18.908768    18.908768            0            0            0    2.2135789 
28600000    143.84285   -46255.314    -2245.279   -6769.9913   -600.69553    634.84991    -1486.528    1328.6012    3495.9081    18.911434    18.911434    18.911434            0            0            0    2.2126428 
28700000    136.14191    -46285.33      1174.52   -3195.0425     5650.088    1068.5145   -123.70971   -1059.2444    373.08743    18.849399    18.849399    18.849399            0            0            0    2.2345607 
28800000     126.1088   -46283.413    1396.8446   -3304.5665    5459.1993    2035.9009   -451.27163   -437.08084    2412.3361    18.861675    18.861675    18.861675            0            0            0    2.2302006 
28900000    108.59358   -46283.845    124.95547   -4302.0774    7907.8631   -3230.9193    2210.5436   -2991.7336    1259.8246    18.893516    18.893516    18.893516            0            0            0    2.2189438 
29000000    99.924634   -46305.042    984.49212   -2210.0035    8476.7913   -3313.3115    234.58043   -2469.0757    3135.2668    18.885823    18.885823    18.885823            0            0            0    2.2216567 
29100000     89.85108   -46326.419    1107.4595   -2427.7015    6901.6555   -1151.5755    1874.7796    -763.1202    1593.1213    18.859012    18.859012    18.859012            0            0            0    2.2311454 
29200000     83.59769   -46344.859    184.95935   -4000.4322    4910.0195    -354.7093   -65.443245   -1820.0073    799.43953    18.891495    18.891495    18.891495            0            0            0    2.2196561 
29300000    66.395276   -46356.041     65.91239   -4400.5081    5245.8805   -647.63524   -3.7788177   -241.69216    1704.0042    18.883141    18.883141    18.883141            0            0            0    2.2226035 
29400000    58.210704   -46366.362    328.98713   -3283.7857    3400.2119    870.53512    1452.7933   -874.80259    2468.4473    18.866852    18.866852    18.866852            0            0            0    2.2283653 
29500000    50.426792   -46379.446   -649.65408   -5371.9541    3710.7669   -287.77503    495.66769    39.599403    1105.9148    18.880049    18.880049    18.880049            0            0            0    2.2236958 
29600000    42.518985    -46391.92   -879.84076   -4367.8744    3331.8875   -1603.5354    3.9933462    -1779.889    1093.3872    18.899415    18.899415    18.899415            0            0            0    2.2168668 
29700000    29.580964   -46406.357    1905.4797    -2497.858    5651.5966    2562.7004    579.03096   -591.06681    870.12615    18.858626    18.858626    18.858626            0            0            0    2.2312823 
29800000    20.729956   -46419.988    1122.0088   -3461.9336    6324.7892    503.17099    860.00585   -794.13616    1153.2906    18.870201    18.870201    18.870201            0            0            0    2.2271789 
29900000     9.975975   -46432.264   -310.92381   -4856.4409    5328.2245    -1404.555    207.75134   -1477.1341    1144.8221    18.876321    18.876321    18.876321            0            0            0    2.2250134 
30000000  0.027818104   -46445.144   -39.670092   -4552.5133     4943.852   -510.34897     515.2881   -1399.5025    1523.4087     18.87612     18.87612     18.87612            0            0            0    2.2250847 
Loop time of 3674.31 on 24 procs for 30000000 steps with 450 atoms

Performance: 705.439 ns/day, 0.034 hours/ns, 8164.800 timesteps/s
99.0% CPU use with 24 MPI tasks x 1 OpenMP threads

MPI task timing breakdown:
Section |  min time  |  avg time  |  max time  |%varavg| %total
---------------------------------------------------------------
Pair    | 636.99     | 823.32     | 1041.7     | 277.9 | 22.41
Neigh   | 41.041     | 47.464     | 52.966     |  36.7 |  1.29
Comm    | 1902       | 2100.3     | 2281.3     | 175.9 | 57.16
Output  | 0.054186   | 0.054416   | 0.056549   |   0.2 |  0.00
Modify  | 569.63     | 595.86     | 621.71     |  58.2 | 16.22
Other   |            | 107.3      |            |       |  2.92

Nlocal:        18.7500 ave          27 max          14 min
Histogram: 3 1 3 10 3 1 1 1 0 1
Nghost:        1278.46 ave        1311 max        1246 min
Histogram: 1 1 5 3 2 3 3 2 1 3
Neighs:        2616.38 ave        4083 max        1825 min
Histogram: 2 4 4 6 4 2 1 0 0 1

Total # of neighbors = 62793
Ave neighs/atom = 139.54000
Neighbor list builds = 694110
Dangerous builds = 0
unfix            1

#fix             1 all nve
#fix             2 all temp/rescale 10 1 2000 1 1
#run             1000
#unfix           1
#unfix           2

write_data      end.dat
System init for write_data ...

Total wall time: 1:01:14
