ITEM: TIMESTEP
0
ITEM: NUMBER OF ATOMS
450
ITEM: BOX BOUNDS pp pp pp
-4.2652611239610749e-01 1.9151951262545488e+01
-4.2652611239610749e-01 1.9151951262545488e+01
-4.2652611239610749e-01 1.9151951262545488e+01
ITEM: ATOMS id type x y z
170 2 3.21531 2.54185 3.45592
120 1 2.41706 3.00973 1.71828
272 2 2.00718 4.53427 1.66938
134 1 3.60886 5.33672 1.88069
242 2 0.686939 2.26686 1.51089
234 2 3.13643 1.78436 0.921638
276 2 7.5544 0.962609 4.27414
177 2 4.60685 4.13886 1.94183
247 2 6.96697 3.34702 2.3363
118 1 5.50571 2.48997 1.51405
200 2 5.97557 0.55312 1.72292
28 1 2.07198 0.531271 0.388655
113 1 8.92963 3.87456 2.02054
214 2 5.6271 3.03808 -0.0414715
78 1 3.31272 2.87467 5.15832
379 2 5.71262 1.73738 6.0447
252 2 2.52733 3.21266 6.6283
203 2 3.59137 4.61533 4.68854
95 1 9.10986 -0.154312 7.80063
57 1 6.8302 0.377182 5.69349
403 2 8.72835 0.589133 6.49627
133 1 1.40164 3.69316 7.78108
257 2 4.79461 5.8076 7.0217
268 2 6.22465 0.217858 7.44595
319 2 8.34105 4.03948 5.33803
73 1 8.44591 5.54645 5.89834
260 2 9.1588 5.49936 7.48681
256 2 -0.293173 1.2885 5.99441
303 2 -0.116699 3.65161 7.41093
92 1 3.80276 6.05738 5.69363
17 1 4.87369 -0.178569 8.18626
347 2 6.9651 5.26924 9.10533
438 2 9.11856 0.979293 8.87058
248 2 1.29773 2.23268 8.6004
149 1 8.90315 5.54597 9.16091
213 2 3.1409 0.393011 8.46094
394 2 1.65644 4.72182 9.06389
123 1 5.17786 5.2569 8.93188
230 2 4.849 3.6826 9.2633
218 2 5.13574 1.80565 12.0252
418 2 3.3557 1.99627 10.1132
77 1 5.10486 2.25145 10.464
39 1 5.4563 0.664962 13.1427
94 1 2.47556 4.96258 13.7961
407 2 1.85825 4.73071 12.24
23 1 1.381 5.82831 10.4537
116 1 8.39458 5.45639 13.5748
75 1 8.48161 -0.0718265 13.6973
369 2 6.80508 4.75433 14.1838
397 2 9.34765 4.6469 12.443
209 2 7.13668 0.632641 12.5827
367 2 5.53954 0.801307 9.64436
389 2 0.340443 2.02566 12.9004
69 1 2.11786 1.02405 9.49377
449 2 -0.113319 5.93621 10.6981
305 2 1.00731 0.782851 10.5508
330 2 4.29411 4.7003 14.1814
107 1 0.683514 0.649939 12.1131
395 2 3.64917 3.95271 17.6655
100 1 2.45364 3.20321 16.6793
24 1 4.96559 5.29093 17.8012
168 2 4.23513 1.68306 17.3502
83 1 4.73498 0.489098 16.372
304 2 2.33937 3.72018 14.9985
59 1 0.100267 5.0476 17.143
406 2 1.34771 1.93693 16.9727
159 2 1.46997 6.04688 17.4848
415 2 5.10349 1.25866 14.9147
306 2 -0.31559 4.354 15.0676
15 1 0.10489 2.28306 18.0735
404 2 1.17107 3.81346 17.9443
285 2 6.32346 4.10018 17.4051
355 2 8.64578 0.336362 15.2582
31 1 5.45869 5.36566 15.1614
147 1 8.21285 0.842822 16.8271
311 2 6.93734 1.73065 17.43
295 2 0.741009 0.848118 18.8986
27 1 5.46625 2.80227 17.934
300 2 3.84689 5.99611 16.7272
178 2 9.27181 5.57576 15.1947
341 2 3.07955 6.68493 2.1874
40 1 2.07045 7.968 1.8787
359 2 0.36796 8.32545 2.45292
350 2 3.16133 9.24078 1.69679
68 1 0.888238 12.4409 2.9783
387 2 0.845886 12.1046 1.32384
3 1 3.85548 9.79908 0.322053
250 2 6.52641 7.73583 1.3441
383 2 1.80824 7.4633 0.405929
244 2 5.24486 10.7104 0.402855
154 2 6.99661 8.78807 3.69517
131 1 6.426 11.7187 1.07232
152 2 7.21918 10.4731 1.73081
191 2 8.88958 7.78804 2.51568
136 1 7.50778 8.64725 2.22036
401 2 -0.409527 11.5769 3.30061
335 2 4.07256 6.11627 -0.154296
117 1 1.29016 12.2229 -0.39105
282 2 2.7297 10.9498 -0.330311
253 2 3.21427 10.7071 8.66178
364 2 2.21627 8.90006 6.86668
316 2 2.36169 6.56987 6.60182
328 2 4.57507 7.57113 5.25084
365 2 -0.337426 7.89687 5.71282
216 2 5.17568 10.3564 7.13609
72 1 3.34835 10.1116 7.21139
382 2 0.568873 12.3538 7.53524
357 2 0.335988 7.2947 7.70596
87 1 1.19721 7.84676 6.50745
14 1 3.60904 12.0748 4.8256
157 2 3.70233 10.3295 5.30758
251 2 7.31538 11.983 7.54965
363 2 6.75499 6.65816 5.36367
186 2 6.92679 9.0617 6.45791
10 1 6.18428 8.0723 5.19723
102 1 6.62495 10.2268 7.69623
421 2 9.22963 6.28533 4.87702
346 2 1.00229 11.6947 5.18514
262 2 5.11649 12.4724 4.50316
324 2 6.58103 9.66027 9.15045
184 2 8.04967 6.96816 12.925
288 2 4.83774 11.4069 11.1855
344 2 4.7072 6.53896 9.80594
416 2 2.27604 7.05437 11.1257
386 2 4.72839 8.81556 11.2392
298 2 2.28819 6.54248 13.5175
146 1 0.456196 9.9855 14.1386
105 1 3.90991 7.49068 10.9857
378 2 0.351512 11.0932 13.1324
235 2 5.17897 10.599 13.6691
37 1 5.92491 10.0153 11.3567
436 2 6.96643 9.22384 12.3337
21 1 8.16954 8.56131 12.981
245 2 7.38003 11.9179 11.7165
56 1 8.01797 12.5236 13.1616
280 2 6.0584 6.50867 17.6017
419 2 3.62684 8.5738 18.7518
302 2 6.00433 6.78944 14.9786
66 1 2.46648 6.35312 18.8729
249 2 0.0349996 10.8145 15.4685
231 2 0.971762 9.01683 16.9254
96 1 4.35691 10.7103 15.1529
148 1 5.83355 8.29352 16.8748
114 1 0.0547128 10.2594 17.031
413 2 4.74502 9.08836 15.7408
373 2 0.266586 11.4857 18.229
271 2 7.29736 9.04316 17.345
125 1 8.40503 9.44631 16.3255
212 2 8.06877 8.89637 14.8229
278 2 8.67647 11.0124 16.831
377 2 9.05136 6.10927 17.7972
195 2 3.36177 11.9723 14.9316
180 2 5.52077 11.3981 16.661
160 2 8.08655 12.0901 14.6099
2 1 9.17169 12.3673 15.816
53 1 7.27506 19.0926 2.54259
439 2 8.70803 18.9421 1.59932
182 2 6.55759 18.5163 3.80626
4 1 8.60593 17.7936 0.159421
294 2 6.38223 12.9601 2.32984
396 2 2.64785 12.626 3.38892
161 2 7.51598 14.8531 0.0616946
299 2 2.30336 15.9347 1.89697
85 1 6.35081 13.2831 3.92579
358 2 5.30167 16.2189 0.967618
314 2 0.548315 14.2878 2.86031
399 2 1.70389 16.3314 4.32642
417 2 4.43614 16.968 3.27084
446 2 -0.000503714 16.8512 2.32371
130 1 3.83602 16.3047 1.76631
41 1 1.01357 15.7892 3.00163
143 1 5.73765 16.6087 4.21617
217 2 5.69028 14.8921 3.87185
111 1 9.12949 14.9609 -0.0601703
374 2 2.88224 18.7157 0.640646
54 1 -0.156322 12.6646 6.00615
109 1 8.01812 16.3675 8.90589
127 1 5.36008 16.0083 7.76397
63 1 2.09593 17.6381 5.42732
441 2 4.97956 17.5574 8.43177
360 2 4.99275 16.0365 6.14747
239 2 3.78992 15.1021 7.83369
219 2 3.65707 18.7622 5.28115
291 2 0.590012 18.3701 5.33501
128 1 3.60337 13.6131 7.7952
190 2 2.10245 17.1393 6.86275
265 2 2.95538 12.7879 6.41467
322 2 4.31221 12.9892 9.03846
292 2 0.451582 19.005 8.18571
124 1 1.33296 17.5217 8.38926
447 2 7.46577 12.659 5.01136
43 1 8.09796 13.0154 6.51827
390 2 0.219039 16.1291 8.22395
166 2 7.49884 16.4549 4.78079
356 2 7.94678 14.6885 6.54632
42 1 8.96082 15.6154 5.3159
196 2 6.59793 15.2732 8.74814
269 2 8.65185 17.6172 8.10766
98 1 4.9004 12.8949 10.7514
211 2 -0.040983 16.887 10.9031
315 2 -0.0306212 16.2137 12.9664
323 2 2.34393 16.6297 9.43343
175 2 -0.355262 13.5997 12.7453
151 2 4.56489 18.8827 13.3768
227 2 3.10015 16.5428 11.8479
258 2 1.54401 14.7341 12.2692
393 2 4.8977 14.0448 12.1381
140 1 3.72681 17.34 13.1235
112 1 0.306894 14.7056 13.3913
193 2 7.39402 17.9987 13.6506
201 2 6.72706 13.4993 13.4294
36 1 5.48786 14.6239 13.6775
199 2 7.69898 16.4672 10.7041
361 2 6.2918 15.9969 13.6991
273 2 8.95602 16.0907 13.3562
67 1 7.6911 16.4856 12.4737
172 2 -0.188938 18.9084 12.3254
51 1 1.43206 16.118 11.109
435 2 -0.35578 16.6167 18.8488
345 2 4.76181 14.8153 18.2237
425 2 7.98168 19.032 17.3935
307 2 2.01303 13.7118 18.9242
336 2 6.57079 16.7708 17.8485
450 2 4.08005 14.9463 14.7772
204 2 3.48628 19.1228 16.2658
169 2 3.74883 16.7482 16.6221
422 2 1.40261 13.9643 14.5039
65 1 3.23602 15.3719 17.7766
240 2 2.94982 17.1426 14.4796
208 2 2.85587 13.9679 16.6478
9 1 2.71056 17.8041 16.0066
171 2 1.95114 16.8818 17.66
11 1 3.05412 13.4979 15.1206
48 1 0.176207 17.4573 17.5877
156 2 6.17576 18.8828 15.8097
210 2 8.19965 16.6365 15.8079
326 2 9.0522 14.2318 15.5829
129 1 7.45789 17.9917 16.1571
431 2 0.76546 18.1673 16.1055
115 1 6.02909 15.7979 19.1466
443 2 9.92266 0.0196195 4.23281
238 2 9.50122 2.6672 2.92935
402 2 9.58285 4.35496 0.445222
38 1 14.6923 0.469877 -0.264399
135 1 11.3448 0.322049 0.969176
297 2 13.1925 -0.130983 0.666617
5 1 18.9451 1.94738 2.55431
119 1 16.5146 2.32091 1.26312
409 2 16.3106 5.59412 2.96647
139 1 18.0744 4.79887 3.79847
277 2 15.9042 1.99046 3.14187
165 2 17.8936 1.6703 1.534
432 2 13.3562 3.59662 3.76378
47 1 14.2509 2.08816 3.52905
400 2 13.5079 0.593896 4.13252
354 2 18.752 3.60799 2.86562
308 2 18.9884 0.248459 2.76863
185 2 9.51883 5.25828 2.77467
434 2 16.9888 4.10813 0.144867
192 2 15.0569 1.79934 0.507806
215 2 13.7538 2.93243 6.76591
74 1 12.0136 3.74968 5.99529
339 2 11.0702 2.55093 5.43593
108 1 9.40126 1.62993 4.64654
290 2 11.6971 5.38219 6.08957
414 2 16.6532 2.89639 6.13395
348 2 18.3816 4.33577 5.40033
137 1 18.3994 2.68748 6.23111
84 1 15.4533 2.89429 7.07632
264 2 15.6246 1.35153 7.64163
342 2 17.6695 5.96222 7.61878
34 1 16.2367 -0.325579 8.05309
44 1 19.0732 -0.263353 6.62734
405 2 15.4029 3.67959 8.80794
202 2 9.88317 0.0698252 12.7016
46 1 10.1206 3.7323 10.9847
183 2 10.052 4.28692 9.5928
228 2 12.0136 4.33222 11.3504
79 1 18.7042 3.18318 14.0156
301 2 16.8998 5.09032 10.7009
188 2 18.5951 3.86877 12.339
101 1 18.1703 5.37828 11.5239
97 1 12.0349 3.29002 12.6377
366 2 13.0606 2.63646 13.6566
220 2 10.5788 2.7545 12.059
104 1 11.049 -0.324243 11.7637
229 2 11.5836 0.966213 10.9482
376 2 14.2175 0.434597 13.2365
71 1 15.9115 5.40649 9.41016
52 1 13.3083 5.36444 19.0182
173 2 12.7336 3.60831 16.1863
254 2 11.3667 1.66732 18.0659
430 2 18.1575 2.01596 17.7503
145 1 14.0145 4.12412 15.4357
241 2 14.7592 2.47993 15.809
237 2 13.5889 3.61851 18.6613
16 1 16.9718 0.372171 15.4677
261 2 17.6015 2.24904 14.9522
58 1 12.8519 2.60789 17.4432
362 2 15.3672 5.01096 15.2783
194 2 15.3603 0.122591 14.9479
296 2 18.116 5.64316 17.7241
30 1 16.6732 5.80991 18.7373
144 1 14.1037 1.54962 14.6577
121 1 10.0276 4.86526 18.5216
279 2 11.5225 5.54872 18.81
205 2 10.3072 3.54366 17.3197
329 2 13.0202 4.90497 14.2604
340 2 11.351 0.866868 15.9697
142 1 11.9212 0.336578 17.3556
370 2 13.3464 1.00894 17.8999
428 2 14.0713 5.72868 17.4858
179 2 10.5502 -0.256868 18.9936
232 2 14.5098 9.05723 0.370615
338 2 18.9813 6.43103 3.74172
61 1 18.6664 7.98374 3.46289
164 2 16.3481 11.1366 2.99819
49 1 9.98854 6.63413 3.36185
380 2 11.5659 6.93987 2.58474
321 2 13.4519 6.94843 0.117134
132 1 15.8968 7.00894 3.83805
86 1 12.7592 7.96774 3.3783
22 1 17.4226 10.6462 4.35394
332 2 16.8496 7.96666 2.73402
440 2 14.4056 7.2695 3.19052
197 2 13.2437 9.8104 3.05835
1 1 14.5239 10.9914 3.37311
198 2 16.3541 7.23381 -0.201324
226 2 11.6602 11.1249 7.02811
448 2 17.9159 9.16895 4.49134
327 2 11.293 7.67858 7.68065
313 2 15.8708 6.95075 5.55918
91 1 11.9968 6.98524 6.17552
284 2 17.1555 8.46068 7.05648
6 1 18.1188 7.29898 6.74471
221 2 11.8882 7.91501 4.82763
150 1 15.1567 7.63715 7.02871
333 2 17.8198 11.7706 5.70192
155 2 13.6218 6.841 6.45176
442 2 13.848 10.8059 5.38587
427 2 14.4676 9.21718 7.04816
349 2 17.5496 11.8514 8.44308
19 1 13.5347 10.5206 6.99889
437 2 14.1915 11.9182 7.8822
223 2 15.2502 6.75534 8.63059
93 1 10.586 8.10573 8.97098
320 2 9.46702 7.21019 9.41205
412 2 19.0849 12.2839 10.3406
286 2 18.9546 8.85795 13.6945
263 2 9.85353 9.02643 12.4153
411 2 11.2142 9.20398 10.0369
106 1 11.3743 9.65129 11.6842
233 2 12.3125 7.00205 13.0345
445 2 12.7294 9.58894 12.4802
70 1 18.7856 12.1008 12.1571
167 2 15.09 11.1461 11.6686
246 2 14.8661 12.4686 13.2459
81 1 17.1912 7.91568 13.4569
289 2 17.5854 6.66185 12.4446
266 2 16.1195 8.76883 12.3748
26 1 16.3987 10.0435 11.4197
158 2 17.558 11.3153 11.8302
60 1 14.4295 12.5737 11.5833
243 2 12.3339 12.2991 11.1985
408 2 16.7224 8.99963 10.1069
141 1 9.79596 6.62918 16.2008
444 2 9.43302 8.08977 16.5768
423 2 11.4852 6.55667 15.6364
353 2 10.7317 12.2073 15.5895
32 1 12.8708 6.555 14.5091
207 2 15.9841 8.55997 17.1547
287 2 16.6938 7.39971 14.8873
429 2 14.2835 7.40511 15.1822
25 1 15.5324 8.08643 15.7614
318 2 15.2671 9.86086 15.1691
126 1 15.1411 11.3973 14.5174
189 2 13.9137 12.0725 15.3186
110 1 15.6381 8.58125 18.7807
174 2 16.5488 12.3094 14.9644
255 2 17.4821 17.7713 0.94719
236 2 11.8974 18.4383 2.24995
372 2 9.50479 16.3397 0.3611
420 2 13.6605 16.7027 -0.0446945
368 2 14.2002 17.8522 3.33651
371 2 14.1198 12.6496 2.96676
381 2 17.6221 14.4597 0.646225
12 1 15.3013 13.9148 2.27091
8 1 15.5659 17.0441 3.97978
18 1 12.8148 18.5665 3.71987
283 2 17.0724 17.6348 3.30162
206 2 10.9794 14.1395 1.34686
293 2 12.3384 15.4863 2.96488
64 1 18.4858 18.0571 2.65612
337 2 9.73146 14.8372 4.20369
62 1 11.0152 14.7326 2.76833
424 2 15.2014 15.5301 3.0582
187 2 14.09 14.4493 1.22391
76 1 13.3089 16.0256 1.62901
309 2 14.7073 15.0496 7.6287
433 2 18.205 14.1476 8.52622
312 2 19.1218 14.2013 6.10028
391 2 12.1116 13.9934 5.71713
388 2 9.78746 12.9624 7.04479
7 1 11.6557 12.7887 6.90213
281 2 9.5887 15.6001 8.71874
343 2 16.9014 16.2498 6.85934
138 1 18.836 12.6811 8.88047
352 2 14.631 16.888 5.50105
82 1 15.1445 16.5907 6.94421
259 2 15.0181 18.1435 7.55012
153 2 12.0488 13.4992 8.37118
426 2 11.6932 16.2038 7.57736
275 2 9.99987 16.9945 5.81883
331 2 17.4669 18.9336 7.02684
225 2 12.2339 17.9577 5.01735
99 1 11.6862 17.1503 6.40496
122 1 18.2795 15.1948 7.20607
20 1 14.0921 13.7331 8.59528
35 1 10.7992 14.4865 8.84405
267 2 14.3388 13.7441 10.4047
45 1 18.5087 17.4328 12.1989
317 2 12.0916 17.9746 12.4081
310 2 16.5487 19.04 9.66028
89 1 10.9784 13.2519 12.1484
176 2 9.44059 12.8886 12.7148
351 2 11.8348 12.9439 13.4432
80 1 13.5749 18.3749 12.7901
392 2 10.643 14.238 10.6057
375 2 14.3157 17.7971 11.1097
224 2 16.8797 17.0033 11.8523
88 1 15.9452 17.8758 10.8572
410 2 13.5264 17.07 13.8907
29 1 17.584 15.5141 18.9515
398 2 13.041 18.4808 17.5326
274 2 16.282 16.6567 18.2103
162 2 18.2953 15.067 14.5846
90 1 12.4232 13.0199 14.9956
270 2 15.8514 14.8235 15.0999
13 1 17.2213 14.713 15.666
222 2 14.43 16.3934 16.6704
163 2 17.4359 18.6189 14.5588
334 2 17.8106 14.6082 17.5101
181 2 10.4823 16.8019 15.2876
55 1 9.43835 15.737 14.8684
325 2 12.9121 14.5845 15.1038
385 2 18.1532 18.1227 17.1018
33 1 14.2437 15.9506 15.0217
384 2 15.5903 19.0788 17.8222
50 1 13.9774 17.1781 17.9179
103 1 16.9775 18.1649 18.2615
ITEM: TIMESTEP
100000
ITEM: NUMBER OF ATOMS
450
ITEM: BOX BOUNDS pp pp pp
-3.0260860370653475e-01 1.9028033753856342e+01
-3.0260860370653475e-01 1.9028033753856342e+01
-3.0260860370653475e-01 1.9028033753856342e+01
ITEM: ATOMS id type x y z
282 2 0.861156 3.50888 2.84065
36 1 2.11752 4.32146 1.66438
367 2 6.76527 1.97726 1.4294
370 2 2.44848 5.94203 2.00962
149 1 8.29312 1.6709 0.843622
396 2 3.79876 3.36209 1.46551
23 1 5.18758 2.47497 1.99883
436 2 8.18552 0.480297 1.85526
210 2 1.67383 4.6604 0.187377
294 2 5.49521 1.65575 3.52713
446 2 9.40572 2.74883 1.19105
102 1 0.959679 -0.457449 4.03014
38 1 6.68255 0.0560943 2.30195
434 2 0.365385 0.917201 0.377085
168 2 7.25071 1.18674 6.00965
57 1 4.64674 3.76476 6.59109
160 2 7.98376 2.82076 8.20232
357 2 0.678343 1.62821 7.24281
236 2 8.32849 3.5665 5.83067
400 2 5.01148 4.42725 7.94976
33 1 7.08932 2.77812 6.65685
150 1 9.13554 4.69538 4.98939
330 2 3.55655 2.36184 7.19712
442 2 1.88017 0.545125 4.65835
401 2 5.9724 3.57277 5.61643
289 2 1.37901 3.55705 8.4235
112 1 2.13587 1.88166 7.91865
397 2 9.17802 5.8735 6.01369
257 2 3.20223 5.06758 6.3266
393 2 9.03093 0.575072 9.24193
184 2 2.22061 5.59594 10.4958
14 1 0.986611 4.38038 10.35
371 2 4.72471 3.26658 13.6324
182 2 4.85777 3.39535 9.98797
63 1 -0.257526 1.82398 12.1596
311 2 -0.547077 5.0077 9.78072
263 2 4.33955 0.901307 11.4999
11 1 4.65734 1.6498 10.08
233 2 1.35011 1.28629 12.9023
201 2 8.20959 5.70522 11.9503
177 2 6.30524 1.49757 10.0643
96 1 2.9472 0.159741 11.1798
231 2 0.665197 3.25484 11.442
348 2 7.1184 0.996275 13.2107
144 1 8.10932 1.81419 9.9264
22 1 8.28515 5.08528 10.3122
391 2 8.91358 3.14909 10.6261
59 1 4.77103 5.07576 9.73374
219 2 5.48565 5.34226 11.3872
408 2 7.11837 5.78454 9.51691
94 1 6.05192 2.2141 13.8869
384 2 3.27499 1.46069 9.20124
157 2 1.46703 4.23406 14.4931
161 2 5.5616 1.855 15.6966
97 1 5.9501 1.71673 17.1447
326 2 7.82937 3.07401 14.8197
260 2 4.55954 1.32023 18.5108
251 2 0.134546 1.56703 17.2257
372 2 2.49501 4.83057 16.4128
40 1 2.10826 3.21274 16.1376
84 1 9.04441 3.7992 15.5935
234 2 -0.285414 4.62292 17.8212
319 2 6.20415 3.3584 17.8704
437 2 6.6801 0.17205 17.2905
172 2 8.27751 4.80864 16.8026
80 1 6.76536 5.2103 17.163
117 1 1.97267 5.642 15.0095
269 2 2.37837 1.95056 15.1701
12 1 1.35868 4.57254 17.8657
235 2 2.27047 0.529184 17.9045
43 1 0.542097 0.488049 18.2695
441 2 5.82798 5.56628 15.6686
448 2 8.51959 0.654683 18.8591
321 2 1.55066 3.08133 17.6664
16 1 3.685 0.0635901 18.8607
72 1 1.9145 0.536275 14.2417
339 2 8.36593 10.5513 1.28663
31 1 8.14389 11.5337 2.73723
166 2 1.76616 12.1189 3.51353
62 1 6.22898 8.15336 3.34281
238 2 6.51706 7.34142 2.02182
224 2 2.64123 9.3331 3.57236
143 1 1.98509 7.46382 3.13538
271 2 5.87372 9.78204 2.70668
359 2 8.98081 11.2838 4.22288
288 2 8.05883 8.20451 3.67184
130 1 9.14495 7.90689 2.38224
71 1 1.7418 10.3578 4.2579
335 2 1.14901 11.7814 0.768119
127 1 8.55789 9.60065 -0.266785
119 1 6.49689 7.946 0.0193943
412 2 4.64205 7.8392 0.261678
361 2 1.64931 8.60507 0.885992
221 2 8.64721 8.023 0.741782
425 2 0.174772 7.22944 3.00312
55 1 -0.0242612 8.5805 -0.290901
114 1 3.1233 8.30868 0.24959
227 2 3.04031 10.1306 0.289996
298 2 0.00554496 10.0954 4.20247
252 2 2.4058 8.14302 7.30616
190 2 7.17055 7.08497 6.97878
222 2 0.771024 5.87182 6.48644
334 2 5.70573 9.62105 6.4483
48 1 3.27065 11.8977 6.70843
267 2 8.20833 11.5179 6.82043
423 2 5.64799 7.75275 4.87729
54 1 6.35047 11.1373 7.18576
355 2 2.27789 7.5065 4.76692
26 1 6.25208 8.11633 6.28698
15 1 8.84203 6.68519 7.34899
332 2 1.64775 10.9034 7.63058
24 1 1.12257 9.17203 8.33997
445 2 5.04019 11.9437 6.94457
187 2 2.68587 10.9205 5.68451
162 2 7.11185 10.2579 8.86426
95 1 0.519418 12.2208 7.87167
140 1 2.17587 6.69895 6.33545
309 2 7.28948 11.0815 11.6113
268 2 3.97029 9.67259 14.1656
20 1 4.00532 8.22314 9.8885
69 1 6.6543 6.50085 12.2959
5 1 6.29619 11.6941 12.9117
364 2 4.10653 6.65631 9.04507
415 2 4.42098 11.8198 12.3422
41 1 8.27032 10.7045 10.204
4 1 3.77149 12.5021 11.0347
67 1 2.63937 9.14669 13.0766
328 2 6.86522 7.85088 11.2935
353 2 3.56403 8.6276 11.5287
344 2 3.78044 11.5375 9.52816
214 2 1.19423 9.85409 13.4484
194 2 6.72406 10.4126 13.89
173 2 5.79335 7.17115 13.5737
93 1 -0.45382 10.365 14.2627
170 2 8.72134 12.5007 9.37923
167 2 2.33466 8.88489 9.63216
375 2 6.08701 8.03377 15.7025
320 2 9.49191 9.722 17.483
128 1 2.85096 11.5268 18.6731
116 1 5.59144 9.73024 14.7693
192 2 0.25287 11.4234 15.1747
299 2 2.87095 8.06785 18.0255
426 2 6.4621 6.62754 18.2832
379 2 1.80799 11.3586 17.478
196 2 3.19016 6.56863 15.0306
283 2 0.739524 6.4905 15.488
345 2 -0.00843459 8.18051 17.3331
111 1 4.99302 6.83872 15.0308
121 1 0.186314 12.6083 16.705
209 2 6.8854 9.13718 18.2426
44 1 2.93097 17.3803 2.38986
281 2 1.03329 14.4686 4.09154
352 2 4.24892 17.5268 3.68356
88 1 8.64719 15.9828 -0.354613
19 1 6.65879 14.5561 2.03606
303 2 2.90045 13.1832 1.74232
276 2 3.63031 18.0903 0.870151
113 1 3.6566 14.2133 0.731093
416 2 7.63016 13.2259 2.95555
29 1 1.34396 12.8321 2.17055
259 2 7.48785 18.3731 3.65067
226 2 1.76629 18.556 2.56423
250 2 5.26238 13.9121 1.21053
239 2 3.0796 15.5407 1.40333
318 2 5.59201 18.7944 1.55562
376 2 0.200724 13.4409 1.07468
419 2 5.96814 15.4075 3.29065
325 2 7.74216 14.9699 0.728519
135 1 5.07528 16.3426 4.25103
387 2 0.752375 17.3902 4.72652
37 1 3.13565 16.1977 6.91751
107 1 8.98905 18.3645 8.4093
49 1 0.691495 15.7991 5.28332
275 2 6.58482 14.0472 8.02169
450 2 2.4813 13.0539 7.74395
254 2 1.4366 15.8453 6.90605
308 2 3.24826 15.782 5.40094
253 2 3.99078 15.7205 8.3571
79 1 8.12357 13.3299 8.11568
414 2 3.38498 17.9314 7.02281
153 2 8.27306 18.3385 7.02873
290 2 8.69926 16.5897 4.88376
85 1 7.43374 18.1539 5.5847
87 1 5.4455 14.2916 9.09424
381 2 6.2902 16.9907 5.4238
302 2 -0.246013 13.2338 8.8865
365 2 6.65952 13.2389 13.4976
213 2 5.15616 13.4531 10.3147
258 2 1.92259 15.8988 13.5004
199 2 9.2296 14.2219 12.1669
164 2 0.822074 13.8693 13.5388
175 2 8.48683 18.0943 11.9094
404 2 7.95009 15.2062 10.2057
86 1 8.09773 14.1403 13.4792
390 2 3.31995 17.9199 10.2819
351 2 3.52866 15.2637 11.5413
191 2 2.35111 13.2298 11.4531
64 1 8.57106 17.3941 13.4215
66 1 2.09572 14.6055 12.3572
211 2 5.70977 16.3643 10.8613
120 1 7.41814 16.8647 10.7265
304 2 2.63948 18.5404 14.2438
322 2 7.30909 15.8339 13.1794
50 1 4.18845 16.5059 10.7518
403 2 7.86047 17.8452 9.49166
336 2 0.254395 18.3659 17.8097
418 2 5.51186 15.7761 17.4698
206 2 7.82053 18.2608 14.7514
122 1 8.71204 13.5269 17.4279
13 1 4.72208 16.9661 16.7171
341 2 9.13641 14.7416 18.2103
225 2 0.58619 18.1148 14.2527
411 2 8.57285 14.3424 14.9973
438 2 6.84958 13.355 17.2538
287 2 3.71152 12.8374 18.6016
374 2 7.98121 17.5635 18.3896
315 2 5.40036 17.7846 15.022
203 2 4.2503 18.1577 17.6292
110 1 5.54886 14.0756 16.8049
74 1 7.91836 18.3856 16.8739
421 2 2.87363 16.4632 15.832
186 2 4.61563 13.1649 15.7844
399 2 0.0695184 14.109 15.9798
9 1 1.95721 17.1131 14.4415
76 1 0.280299 14.902 14.4563
293 2 14.0063 5.27567 2.63852
73 1 13.0462 4.88169 1.21753
279 2 17.9338 3.40033 0.901495
249 2 14.8013 2.77093 4.40553
27 1 17.1005 -0.0871502 3.32641
142 1 18.3197 3.28225 2.48816
277 2 18.6869 0.0233152 3.50555
317 2 11.4275 4.39646 1.09469
406 2 17.3812 4.05038 3.60015
65 1 10.3602 3.5714 2.16662
220 2 17.5235 1.69153 2.53493
60 1 14.3489 5.68082 4.163
427 2 12.7882 0.437145 4.1473
338 2 9.52686 4.32213 3.44596
350 2 12.9814 6.10229 -0.0799622
301 2 11.0131 0.489787 -0.0730493
81 1 13.1921 2.0993 4.04
363 2 11.9205 2.80469 3.30362
200 2 17.2112 5.24544 -0.356259
373 2 16.8274 5.12023 6.96598
98 1 17.1074 4.40288 5.26103
447 2 12.8951 5.85614 5.23377
197 2 18.1296 3.18135 6.09923
92 1 14.1395 2.508 6.59082
46 1 18.8485 2.77665 7.44641
362 2 17.6328 2.4762 8.76442
45 1 15.3273 5.34363 7.59095
171 2 12.5066 2.44817 5.7368
229 2 11.2098 6.18729 7.69925
407 2 14.343 0.94409 6.37154
285 2 13.9955 2.15304 8.22506
174 2 14.5881 4.09735 6.62396
307 2 14.9007 5.24045 9.24555
202 2 15.9458 0.331323 4.80152
163 2 16.021 5.53619 4.6535
51 1 11.3638 4.52105 10.359
125 1 10.9282 0.962613 13.1363
28 1 16.9346 1.38022 9.98636
208 2 15.327 1.65803 10.1878
430 2 17.6411 3.73421 11.9092
68 1 14.196 2.66267 9.78214
156 2 11.7643 4.73571 11.7283
198 2 14.3352 3.55531 11.266
312 2 18.0088 1.30168 11.2266
154 2 16.3128 1.99179 13.4697
1 1 13.3299 4.10812 12.4548
394 2 15.4469 5.75626 11.137
241 2 12.7549 5.04369 13.8262
424 2 16.9062 5.28347 13.57
383 2 10.0325 5.37365 10.1193
212 2 12.4825 5.99386 9.81178
108 1 16.7268 3.51124 13.2423
35 1 15.7084 0.76048 14.1129
262 2 11.1237 0.902337 11.4317
264 2 12.4618 2.80657 9.9927
180 2 13.3839 0.202878 11.7102
3 1 17.8524 3.89312 18.7251
7 1 18.0798 2.17221 16.2973
91 1 12.0628 5.03481 15.2104
151 2 12.3391 3.80869 16.4406
148 1 12.6787 2.20546 15.9425
432 2 14.3312 1.18413 17.6139
329 2 11.8706 2.063 14.2624
272 2 18.179 3.18439 14.8191
429 2 13.99 3.01061 14.7746
422 2 10.2051 4.51506 14.7074
75 1 15.4367 0.320125 16.9405
280 2 16.6703 1.03343 15.6479
274 2 17.3738 2.75005 17.7953
104 1 10.2261 1.19745 17.7435
417 2 11.7912 1.38575 17.1695
176 2 14.3143 0.507642 15.4435
433 2 9.66275 3.05987 16.6919
32 1 16.7222 6.86578 0.0927555
286 2 16.7228 6.9093 1.69183
115 1 13.45 10.8495 2.57511
10 1 17.3948 6.82151 3.15397
343 2 14.6863 7.32664 4.31932
240 2 17.1428 11.5145 3.58996
243 2 17.5596 11.8998 1.2325
380 2 10.5894 7.86249 2.33467
435 2 13.7236 9.8785 3.65859
368 2 18.3839 7.19703 0.0417732
70 1 18.759 11.3586 0.327879
159 2 12.3216 10.2403 1.42896
247 2 18.6454 9.79349 0.576509
347 2 14.9104 11.7466 1.95162
146 1 16.8182 12.6252 2.44018
354 2 16.9096 10.4493 5.68375
39 1 12.4198 6.43429 6.80435
405 2 12.5842 7.97245 6.40072
273 2 14.0847 9.90164 6.21757
77 1 18.0601 10.8063 4.79963
331 2 9.75055 9.24087 5.82034
30 1 15.3867 10.8004 6.29204
178 2 18.6372 9.27941 8.19979
410 2 10.6401 12.2786 5.75666
398 2 14.0908 6.43412 7.17258
8 1 15.2256 12.1704 9.02515
431 2 16.2158 8.13526 7.12445
185 2 15.0042 12.0469 5.30245
139 1 16.9009 8.91274 8.31202
333 2 19.3458 12.0698 6.2917
155 2 15.8196 10.7331 8.12122
47 1 13.6779 8.78827 4.95027
136 1 9.53617 10.9284 5.69183
244 2 9.31597 7.52724 8.67502
245 2 14.099 7.78019 10.9052
100 1 14.5813 6.59293 9.80505
105 1 16.4489 11.6999 12.3498
242 2 11.8125 9.97714 12.8329
358 2 9.90851 10.1359 10.4725
449 2 15.4103 10.3866 11.7557
378 2 16.5077 8.30184 9.73832
327 2 13.2053 11.4014 14.1722
131 1 18.4689 6.17005 10.8153
17 1 11.4855 9.61717 11.1205
133 1 15.6178 8.7558 11.2946
386 2 11.3051 8.24085 10.2286
183 2 16.1158 7.94682 12.6586
297 2 18.5355 7.90392 10.8357
337 2 14.2235 12.3505 10.151
218 2 17.8035 10.9295 13.0829
147 1 12.7083 12.4446 10.542
316 2 12.4409 10.7318 10.2831
126 1 11.122 6.92546 9.3187
123 1 16.518 6.69191 14.2554
256 2 13.9342 11.3477 18.9426
138 1 13.6276 7.20239 18.2212
230 2 12.3141 6.23611 16.1324
310 2 12.9165 8.72548 14.4937
134 1 13.3928 7.36339 15.366
349 2 17.8877 6.95163 15.1023
313 2 18.2956 9.25406 15.3199
428 2 15.1612 7.02682 15.0537
2 1 10.5234 10.9298 17.1219
413 2 13.839 8.00072 16.7378
342 2 11.5167 10.3179 15.9166
141 1 18.9003 7.84334 16.0086
261 2 11.2175 11.2124 18.7357
360 2 18.8145 11.7411 17.9184
83 1 12.5329 10.2983 19.2947
314 2 15.2614 7.407 18.6952
181 2 12.437 8.859 18.8776
18 1 12.2506 10.1354 14.4336
444 2 9.40003 12.2388 16.8089
61 1 14.7212 12.3021 17.2435
34 1 16.6109 17.7267 0.580575
340 2 15.2701 16.6723 0.649038
439 2 17.1221 14.0897 2.12727
266 2 11.4564 17.4256 4.15688
356 2 10.0612 16.7267 -0.162484
402 2 11.4507 14.3753 3.4106
246 2 10.2089 12.4617 1.88517
124 1 11.5361 13.325 2.25116
265 2 12.7869 18.4351 1.91223
215 2 12.8304 13.7358 1.14412
53 1 13.4897 15.0063 -0.285127
106 1 12.9687 18.2223 3.74548
255 2 14.1821 17.3701 3.83935
382 2 16.8995 18.6462 1.81438
291 2 12.5134 11.99 3.13718
204 2 17.7348 16.518 0.550313
109 1 18.0819 14.9642 0.85716
137 1 11.9812 18.5214 0.442602
389 2 18.6161 15.4294 6.25249
248 2 17.2911 16.9408 4.41015
25 1 10.9073 15.1708 8.66537
58 1 15.0098 18.7614 6.23175
216 2 11.1644 15.4382 5.67625
237 2 15.8585 14.8654 5.87032
78 1 13.5077 16.6699 8.19032
82 1 17.189 15.9332 5.92805
129 1 10.3421 16.238 4.72797
385 2 13.9424 17.6866 6.70533
409 2 16.5546 16.9553 6.84251
152 2 12.3348 15.5498 8.03243
52 1 14.7737 13.6061 5.74513
169 2 14.8739 12.8179 7.55938
324 2 13.2178 13.8684 5.68852
90 1 11.5708 13.7439 5.53389
284 2 11.6889 13.1554 9.18409
395 2 10.1166 17.218 8.38443
179 2 9.76136 14.0411 7.75532
306 2 16.8742 12.8616 9.15384
270 2 12.8572 18.065 8.72084
165 2 11.6243 17.6055 11.3333
6 1 12.1562 19.1413 10.5473
103 1 12.2812 17.1324 12.9539
118 1 10.1297 13.4655 10.5022
323 2 16.1345 16.0414 11.7572
300 2 13.7971 16.8942 12.2166
132 1 16.5084 16.9382 9.92596
223 2 10.6623 15.1593 10.1676
145 1 15.3554 17.0028 12.7851
377 2 14.8986 16.6745 9.22448
101 1 17.861 14.0548 9.8754
295 2 15.1176 12.5617 12.9041
392 2 11.4166 12.9845 11.5616
207 2 18.1702 15.2577 13.8573
278 2 16.0523 18.717 13.1993
440 2 10.0239 16.4624 13.9866
195 2 17.575 13.1834 11.3857
305 2 16.4966 18.9031 9.66029
296 2 13.4744 14.1556 12.9363
388 2 17.8566 15.6801 9.99803
292 2 16.0932 18.6369 18.3519
366 2 14.8095 14.5431 18.3615
443 2 11.5383 16.9478 16.4714
56 1 15.8601 16.4551 15.6898
369 2 15.6099 16.1742 14.1738
42 1 10.6029 17.6874 15.2948
232 2 13.0926 18.0889 18.5471
89 1 12.928 17.2349 16.8375
99 1 14.0671 13.0363 14.0565
217 2 10.6601 19.0691 14.1326
420 2 12.5607 17.4163 14.5917
189 2 13.2165 15.8735 17.7644
21 1 16.2692 14.7945 18.013
228 2 13.8291 13.1398 15.9557
188 2 14.5266 17.243 16.1286
205 2 16.8898 15.9375 16.9682
158 2 16.3154 12.8628 16.8922
346 2 9.69069 18.3871 16.6065
193 2 17.5895 14.1936 18.6489
ITEM: TIMESTEP
200000
ITEM: NUMBER OF ATOMS
450
ITEM: BOX BOUNDS pp pp pp
-5.6499836165275319e-01 1.9290423511803453e+01
-5.6499836165275319e-01 1.9290423511803453e+01
-5.6499836165275319e-01 1.9290423511803453e+01
ITEM: ATOMS id type x y z
380 2 1.55836 0.727786 2.23853
286 2 2.41888 5.47113 2.26631
138 1 1.45596 5.62969 0.526513
117 1 1.73514 2.33136 2.69148
190 2 2.94903 2.63316 1.32112
88 1 2.91294 3.30122 -0.555797
53 1 1.97815 5.411 3.99997
370 2 1.46614 3.75258 3.85646
232 2 -0.00430643 5.873 1.22231
165 2 1.85073 4.43269 -0.438688
359 2 3.59757 5.29311 4.54047
272 2 8.88485 5.78312 2.61295
319 2 4.25341 0.892111 5.90113
76 1 4.00405 2.04972 7.12063
269 2 4.30482 5.28295 9.16768
255 2 5.67373 1.94579 7.51538
210 2 6.78322 5.23235 8.96299
416 2 2.97642 3.24487 7.23805
302 2 5.07446 5.5991 6.63034
137 1 9.29169 -0.240927 8.63645
219 2 2.63742 -0.592324 7.5084
450 2 -0.118075 0.52417 6.32626
115 1 6.76629 1.44244 9.23393
308 2 7.9587 0.790293 8.3043
225 2 -0.379054 3.74189 8.11853
145 1 5.56424 5.78243 8.22539
51 1 3.58996 5.21111 10.6755
248 2 6.06334 1.48476 12.4132
207 2 0.397357 1.68306 10.7352
313 2 3.57838 1.90275 12.9823
93 1 2.13438 1.51847 13.4131
258 2 3.35081 3.68343 11.479
100 1 -0.30824 3.43753 9.87548
212 2 0.0286384 4.56999 11.2152
276 2 4.89782 3.77922 14.0654
33 1 6.17257 -0.187949 11.8305
228 2 7.29189 4.61251 11.7538
6 1 4.79601 2.73045 12.8866
183 2 1.07199 2.64365 13.9991
277 2 6.17198 -0.441816 10.2764
196 2 1.49099 0.254996 12.7743
162 2 7.18857 2.74937 10.2476
136 1 7.48767 4.36881 10.1497
384 2 4.96245 1.95866 9.86283
309 2 2.13786 5.87798 10.7083
104 1 9.05668 -0.357477 13.0262
230 2 2.09006 2.10718 18.4593
399 2 5.7507 2.22019 17.0546
49 1 5.51621 0.649915 16.5833
431 2 6.71693 0.772395 15.3315
442 2 4.25235 0.294168 15.3078
70 1 0.289822 3.56522 15.0528
175 2 -0.20569 -0.306896 16.4638
32 1 0.632323 1.92045 17.7582
311 2 1.24009 4.87319 15.6992
328 2 4.39403 3.35138 18.8622
281 2 0.419997 2.79162 16.4304
116 1 5.70197 3.85281 17.4591
371 2 4.63636 4.73022 16.4254
249 2 4.64292 -0.18152 17.5807
11 1 8.19624 5.90803 17.4674
233 2 6.83945 5.16469 17.9177
124 1 4.57295 5.42019 14.7198
215 2 8.62243 5.66702 19.3143
120 1 -0.194323 11.6877 2.13264
388 2 7.31573 8.24658 2.28608
383 2 2.79989 6.65356 0.21768
18 1 7.69465 6.54417 3.63388
395 2 4.83474 9.24946 1.2156
107 1 6.58793 9.16006 1.28378
37 1 6.54678 10.6693 3.62607
417 2 6.12874 6.2763 3.97332
129 1 3.2701 8.8572 1.65813
441 2 2.5812 9.39329 0.312558
317 2 1.0809 12.5143 2.80261
414 2 6.43205 8.42445 -0.337502
222 2 2.77155 9.36875 3.29972
360 2 9.24339 11.7163 1.91932
109 1 1.32683 10.3697 -0.04648
315 2 6.97937 10.8802 1.6405
112 1 7.95536 12.2387 0.995171
262 2 6.33339 12.3347 3.99258
421 2 0.525168 10.3218 1.43481
310 2 5.25396 9.85097 4.196