 450 450   0   0
  0.1287379E+02  0.1796000E-08  0.1796000E-08  0.1796000E-08  0.1000000E-14
   5000.00000000000     
  CAR 
 silica                                  
     11.91872273    -24.32730519  301      3.45131041      1.00000000
    -24.327  0.0000E+00  0.0000E+00
    -24.206  0.0000E+00  0.0000E+00
    -24.086  0.0000E+00  0.0000E+00
    -23.965  0.0000E+00  0.0000E+00
    -23.844  0.5645E-02  0.6667E-03
    -23.723  0.5199E-02  0.1280E-02
    -23.602  0.9716E-02  0.2425E-02
    -23.482  0.1798E-01  0.4542E-02
    -23.361  0.2855E-01  0.7907E-02
    -23.240  0.4811E-01  0.1358E-01
    -23.119  0.7831E-01  0.2281E-01
    -22.998  0.1247E+00  0.3751E-01
    -22.877  0.2012E+00  0.6123E-01
    -22.757  0.3241E+00  0.9944E-01
    -22.636  0.5128E+00  0.1599E+00
    -22.515  0.8087E+00  0.2553E+00
    -22.394  0.1263E+01  0.4043E+00
    -22.273  0.1941E+01  0.6333E+00
    -22.153  0.2921E+01  0.9778E+00
    -22.032  0.4272E+01  0.1481E+01
    -21.911  0.6044E+01  0.2194E+01
    -21.790  0.8241E+01  0.3165E+01
    -21.669  0.1085E+02  0.4444E+01
    -21.548  0.1387E+02  0.6078E+01
    -21.428  0.1729E+02  0.8114E+01
    -21.307  0.2111E+02  0.1060E+02
    -21.186  0.2531E+02  0.1358E+02
    -21.065  0.2984E+02  0.1710E+02
    -20.944  0.3470E+02  0.2119E+02
    -20.824  0.3985E+02  0.2589E+02
    -20.703  0.4527E+02  0.3123E+02
    -20.582  0.5091E+02  0.3724E+02
    -20.461  0.5671E+02  0.4393E+02
    -20.340  0.6264E+02  0.5131E+02
    -20.219  0.6866E+02  0.5941E+02
    -20.099  0.7473E+02  0.6823E+02
    -19.978  0.8078E+02  0.7776E+02
    -19.857  0.8674E+02  0.8800E+02
    -19.736  0.9246E+02  0.9891E+02
    -19.615  0.9784E+02  0.1105E+03
    -19.495  0.1028E+03  0.1226E+03
    -19.374  0.1072E+03  0.1352E+03
    -19.253  0.1112E+03  0.1484E+03
    -19.132  0.1146E+03  0.1619E+03
    -19.011  0.1176E+03  0.1758E+03
    -18.890  0.1201E+03  0.1899E+03
    -18.770  0.1222E+03  0.2043E+03
    -18.649  0.1240E+03  0.2190E+03
    -18.528  0.1255E+03  0.2338E+03
    -18.407  0.1268E+03  0.2488E+03
    -18.286  0.1277E+03  0.2638E+03
    -18.165  0.1282E+03  0.2790E+03
    -18.045  0.1283E+03  0.2941E+03
    -17.924  0.1279E+03  0.3092E+03
    -17.803  0.1271E+03  0.3242E+03
    -17.682  0.1259E+03  0.3391E+03
    -17.561  0.1244E+03  0.3538E+03
    -17.441  0.1225E+03  0.3683E+03
    -17.320  0.1201E+03  0.3825E+03
    -17.199  0.1171E+03  0.3963E+03
    -17.078  0.1136E+03  0.4097E+03
    -16.957  0.1094E+03  0.4227E+03
    -16.836  0.1048E+03  0.4350E+03
    -16.716  0.9993E+02  0.4469E+03
    -16.595  0.9480E+02  0.4581E+03
    -16.474  0.8956E+02  0.4686E+03
    -16.353  0.8429E+02  0.4786E+03
    -16.232  0.7911E+02  0.4879E+03
    -16.112  0.7411E+02  0.4967E+03
    -15.991  0.6933E+02  0.5049E+03
    -15.870  0.6478E+02  0.5125E+03
    -15.749  0.6051E+02  0.5197E+03
    -15.628  0.5657E+02  0.5264E+03
    -15.507  0.5297E+02  0.5327E+03
    -15.387  0.4968E+02  0.5385E+03
    -15.266  0.4669E+02  0.5441E+03
    -15.145  0.4399E+02  0.5493E+03
    -15.024  0.4155E+02  0.5542E+03
    -14.903  0.3933E+02  0.5588E+03
    -14.783  0.3726E+02  0.5632E+03
    -14.662  0.3522E+02  0.5674E+03
    -14.541  0.3309E+02  0.5713E+03
    -14.420  0.3080E+02  0.5750E+03
    -14.299  0.2832E+02  0.5783E+03
    -14.178  0.2573E+02  0.5814E+03
    -14.058  0.2314E+02  0.5841E+03
    -13.937  0.2065E+02  0.5866E+03
    -13.816  0.1830E+02  0.5888E+03
    -13.695  0.1607E+02  0.5907E+03
    -13.574  0.1396E+02  0.5923E+03
    -13.453  0.1198E+02  0.5938E+03
    -13.333  0.1012E+02  0.5950E+03
    -13.212  0.8441E+01  0.5960E+03
    -13.091  0.6953E+01  0.5968E+03
    -12.970  0.5677E+01  0.5975E+03
    -12.849  0.4608E+01  0.5980E+03
    -12.729  0.3730E+01  0.5985E+03
    -12.608  0.3013E+01  0.5988E+03
    -12.487  0.2428E+01  0.5991E+03
    -12.366  0.1949E+01  0.5994E+03
    -12.245  0.1563E+01  0.5996E+03
    -12.124  0.1257E+01  0.5997E+03
    -12.004  0.1032E+01  0.5998E+03
    -11.883  0.8982E+00  0.5999E+03
    -11.762  0.8687E+00  0.6000E+03
    -11.641  0.9655E+00  0.6002E+03
    -11.520  0.1212E+01  0.6003E+03
    -11.400  0.1634E+01  0.6005E+03
    -11.279  0.2248E+01  0.6008E+03
    -11.158  0.3073E+01  0.6011E+03
    -11.037  0.4116E+01  0.6016E+03
    -10.916  0.5380E+01  0.6023E+03
    -10.795  0.6861E+01  0.6031E+03
    -10.675  0.8557E+01  0.6041E+03
    -10.554  0.1046E+02  0.6053E+03
    -10.433  0.1257E+02  0.6068E+03
    -10.312  0.1486E+02  0.6086E+03
    -10.191  0.1728E+02  0.6106E+03
    -10.071  0.1977E+02  0.6130E+03
     -9.950  0.2228E+02  0.6156E+03
     -9.829  0.2480E+02  0.6186E+03
     -9.708  0.2737E+02  0.6218E+03
     -9.587  0.3001E+02  0.6254E+03
     -9.466  0.3271E+02  0.6293E+03
     -9.346  0.3543E+02  0.6335E+03
     -9.225  0.3812E+02  0.6380E+03
     -9.104  0.4077E+02  0.6428E+03
     -8.983  0.4341E+02  0.6479E+03
     -8.862  0.4610E+02  0.6534E+03
     -8.742  0.4887E+02  0.6592E+03
     -8.621  0.5176E+02  0.6653E+03
     -8.500  0.5474E+02  0.6717E+03
     -8.379  0.5777E+02  0.6786E+03
     -8.258  0.6081E+02  0.6858E+03
     -8.137  0.6383E+02  0.6933E+03
     -8.017  0.6684E+02  0.7012E+03
     -7.896  0.6989E+02  0.7094E+03
     -7.775  0.7309E+02  0.7181E+03
     -7.654  0.7650E+02  0.7271E+03
     -7.533  0.8015E+02  0.7366E+03
     -7.412  0.8401E+02  0.7465E+03
     -7.292  0.8796E+02  0.7569E+03
     -7.171  0.9189E+02  0.7678E+03
     -7.050  0.9568E+02  0.7791E+03
     -6.929  0.9922E+02  0.7908E+03
     -6.808  0.1024E+03  0.8029E+03
     -6.688  0.1053E+03  0.8154E+03
     -6.567  0.1079E+03  0.8281E+03
     -6.446  0.1101E+03  0.8411E+03
     -6.325  0.1121E+03  0.8544E+03
     -6.204  0.1139E+03  0.8679E+03
     -6.083  0.1156E+03  0.8816E+03
     -5.963  0.1172E+03  0.8954E+03
     -5.842  0.1188E+03  0.9095E+03
     -5.721  0.1206E+03  0.9238E+03
     -5.600  0.1228E+03  0.9383E+03
     -5.479  0.1254E+03  0.9531E+03
     -5.359  0.1287E+03  0.9683E+03
     -5.238  0.1324E+03  0.9839E+03
     -5.117  0.1367E+03  0.1000E+04
     -4.996  0.1414E+03  0.1017E+04
     -4.875  0.1465E+03  0.1034E+04
     -4.754  0.1520E+03  0.1052E+04
     -4.634  0.1578E+03  0.1071E+04
     -4.513  0.1638E+03  0.1090E+04
     -4.392  0.1701E+03  0.1110E+04
     -4.271  0.1766E+03  0.1131E+04
     -4.150  0.1832E+03  0.1153E+04
     -4.030  0.1898E+03  0.1175E+04
     -3.909  0.1964E+03  0.1198E+04
     -3.788  0.2029E+03  0.1222E+04
     -3.667  0.2093E+03  0.1247E+04
     -3.546  0.2156E+03  0.1272E+04
     -3.425  0.2218E+03  0.1299E+04
     -3.305  0.2278E+03  0.1325E+04
     -3.184  0.2335E+03  0.1353E+04
     -3.063  0.2389E+03  0.1381E+04
     -2.942  0.2438E+03  0.1410E+04
     -2.821  0.2482E+03  0.1439E+04
     -2.701  0.2520E+03  0.1469E+04
     -2.580  0.2553E+03  0.1499E+04
     -2.459  0.2581E+03  0.1530E+04
     -2.338  0.2606E+03  0.1561E+04
     -2.217  0.2627E+03  0.1592E+04
     -2.096  0.2646E+03  0.1623E+04
     -1.976  0.2660E+03  0.1654E+04
     -1.855  0.2670E+03  0.1686E+04
     -1.734  0.2675E+03  0.1718E+04
     -1.613  0.2673E+03  0.1749E+04
     -1.492  0.2665E+03  0.1781E+04
     -1.371  0.2649E+03  0.1812E+04
     -1.251  0.2623E+03  0.1843E+04
     -1.130  0.2588E+03  0.1873E+04
     -1.009  0.2544E+03  0.1903E+04
     -0.888  0.2491E+03  0.1933E+04
     -0.767  0.2430E+03  0.1962E+04
     -0.647  0.2365E+03  0.1989E+04
     -0.526  0.2295E+03  0.2016E+04
     -0.405  0.2221E+03  0.2043E+04
     -0.284  0.2145E+03  0.2068E+04
     -0.163  0.2066E+03  0.2092E+04
     -0.042  0.1982E+03  0.2116E+04
      0.078  0.1894E+03  0.2138E+04
      0.199  0.1802E+03  0.2159E+04
      0.320  0.1706E+03  0.2179E+04
      0.441  0.1610E+03  0.2198E+04
      0.562  0.1513E+03  0.2216E+04
      0.682  0.1419E+03  0.2233E+04
      0.803  0.1327E+03  0.2249E+04
      0.924  0.1240E+03  0.2263E+04
      1.045  0.1157E+03  0.2277E+04
      1.166  0.1078E+03  0.2290E+04
      1.287  0.1004E+03  0.2301E+04
      1.407  0.9335E+02  0.2312E+04
      1.528  0.8671E+02  0.2323E+04
      1.649  0.8042E+02  0.2332E+04
      1.770  0.7447E+02  0.2341E+04
      1.891  0.6881E+02  0.2349E+04
      2.011  0.6340E+02  0.2357E+04
      2.132  0.5815E+02  0.2363E+04
      2.253  0.5302E+02  0.2370E+04
      2.374  0.4798E+02  0.2375E+04
      2.495  0.4305E+02  0.2380E+04
      2.616  0.3830E+02  0.2385E+04
      2.736  0.3384E+02  0.2389E+04
      2.857  0.2980E+02  0.2393E+04
      2.978  0.2632E+02  0.2396E+04
      3.099  0.2353E+02  0.2398E+04
      3.220  0.2154E+02  0.2401E+04
      3.340  0.2040E+02  0.2403E+04
      3.461  0.2007E+02  0.2406E+04
      3.582  0.2047E+02  0.2408E+04
      3.703  0.2147E+02  0.2411E+04
      3.824  0.2296E+02  0.2413E+04
      3.945  0.2481E+02  0.2416E+04
      4.065  0.2695E+02  0.2420E+04
      4.186  0.2931E+02  0.2423E+04
      4.307  0.3184E+02  0.2427E+04
      4.428  0.3450E+02  0.2431E+04
      4.549  0.3729E+02  0.2435E+04
      4.670  0.4020E+02  0.2440E+04
      4.790  0.4321E+02  0.2445E+04
      4.911  0.4631E+02  0.2450E+04
      5.032  0.4948E+02  0.2456E+04
      5.153  0.5269E+02  0.2462E+04
      5.274  0.5588E+02  0.2469E+04
      5.394  0.5901E+02  0.2476E+04
      5.515  0.6204E+02  0.2483E+04
      5.636  0.6495E+02  0.2491E+04
      5.757  0.6779E+02  0.2499E+04
      5.878  0.7062E+02  0.2507E+04
      5.999  0.7354E+02  0.2516E+04
      6.119  0.7659E+02  0.2525E+04
      6.240  0.7979E+02  0.2534E+04
      6.361  0.8313E+02  0.2544E+04
      6.482  0.8662E+02  0.2554E+04
      6.603  0.9026E+02  0.2565E+04
      6.723  0.9402E+02  0.2576E+04
      6.844  0.9786E+02  0.2588E+04
      6.965  0.1017E+03  0.2600E+04
      7.086  0.1055E+03  0.2612E+04
      7.207  0.1092E+03  0.2625E+04
      7.328  0.1126E+03  0.2638E+04
      7.448  0.1159E+03  0.2652E+04
      7.569  0.1188E+03  0.2666E+04
      7.690  0.1215E+03  0.2680E+04
      7.811  0.1237E+03  0.2695E+04
      7.932  0.1256E+03  0.2710E+04
      8.052  0.1270E+03  0.2725E+04
      8.173  0.1277E+03  0.2740E+04
      8.294  0.1277E+03  0.2755E+04
      8.415  0.1268E+03  0.2770E+04
      8.536  0.1247E+03  0.2785E+04
      8.657  0.1211E+03  0.2799E+04
      8.777  0.1157E+03  0.2813E+04
      8.898  0.1082E+03  0.2826E+04
      9.019  0.9827E+02  0.2837E+04
      9.140  0.8619E+02  0.2848E+04
      9.261  0.7248E+02  0.2856E+04
      9.382  0.5815E+02  0.2863E+04
      9.502  0.4441E+02  0.2868E+04
      9.623  0.3232E+02  0.2872E+04
      9.744  0.2254E+02  0.2875E+04
      9.865  0.1518E+02  0.2877E+04
      9.986  0.9954E+01  0.2878E+04
     10.106  0.6397E+01  0.2879E+04
     10.227  0.4052E+01  0.2879E+04
     10.348  0.2537E+01  0.2879E+04
     10.469  0.1572E+01  0.2880E+04
     10.590  0.9626E+00  0.2880E+04
     10.711  0.5792E+00  0.2880E+04
     10.831  0.3404E+00  0.2880E+04
     10.952  0.1910E+00  0.2880E+04
     11.073  0.9894E-01  0.2880E+04
     11.194  0.4371E-01  0.2880E+04
     11.315  0.1344E-01  0.2880E+04
     11.435  0.0000E+00  0.2880E+04
     11.556  0.0000E+00  0.2880E+04
     11.677  0.0000E+00  0.2880E+04
     11.798  0.0000E+00  0.2880E+04
     11.919  0.0000E+00  0.2880E+04
     12.17688767    -22.91383903  301      3.35599546      1.00000000
    -22.914  0.0000E+00  0.0000E+00
    -22.797  0.0000E+00  0.0000E+00
    -22.680  0.0000E+00  0.0000E+00
    -22.563  0.0000E+00  0.0000E+00
    -22.446  0.5800E-02  0.6849E-03
    -22.329  0.4122E-02  0.1171E-02
    -22.212  0.7707E-02  0.2078E-02
    -22.095  0.1225E-01  0.3519E-02
    -21.978  0.2075E-01  0.5961E-02
    -21.861  0.3305E-01  0.9850E-02
    -21.744  0.5380E-01  0.1618E-01
    -21.627  0.8554E-01  0.2625E-01
    -21.510  0.1378E+00  0.4247E-01
    -21.393  0.2190E+00  0.6825E-01
    -21.276  0.3473E+00  0.1091E+00
    -21.159  0.5439E+00  0.1732E+00
    -21.042  0.8397E+00  0.2720E+00
    -20.925  0.1271E+01  0.4215E+00
    -20.808  0.1868E+01  0.6412E+00
    -20.691  0.2643E+01  0.9519E+00
    -20.574  0.3572E+01  0.1371E+01
    -20.457  0.4595E+01  0.1910E+01
    -20.341  0.5664E+01  0.2574E+01
    -20.224  0.6770E+01  0.3365E+01
    -20.107  0.7969E+01  0.4297E+01
    -19.990  0.9346E+01  0.5388E+01
    -19.873  0.1097E+02  0.6669E+01
    -19.756  0.1289E+02  0.8174E+01
    -19.639  0.1512E+02  0.9941E+01
    -19.522  0.1767E+02  0.1201E+02
    -19.405  0.2050E+02  0.1440E+02
    -19.288  0.2357E+02  0.1716E+02
    -19.171  0.2682E+02  0.2030E+02
    -19.054  0.3018E+02  0.2384E+02
    -18.937  0.3361E+02  0.2777E+02
    -18.820  0.3712E+02  0.3213E+02
    -18.703  0.4075E+02  0.3691E+02
    -18.586  0.4455E+02  0.4213E+02
    -18.469  0.4858E+02  0.4784E+02
    -18.352  0.5286E+02  0.5405E+02
    -18.235  0.5733E+02  0.6078E+02
    -18.118  0.6188E+02  0.6805E+02
    -18.001  0.6642E+02  0.7586E+02
    -17.884  0.7093E+02  0.8420E+02
    -17.767  0.7545E+02  0.9307E+02
    -17.650  0.8001E+02  0.1025E+03
    -17.533  0.8460E+02  0.1124E+03
    -17.416  0.8916E+02  0.1229E+03
    -17.299  0.9359E+02  0.1340E+03
    -17.182  0.9780E+02  0.1455E+03
    -17.065  0.1017E+03  0.1575E+03
    -16.948  0.1053E+03  0.1699E+03
    -16.831  0.1085E+03  0.1827E+03
    -16.714  0.1114E+03  0.1958E+03
    -16.598  0.1138E+03  0.2093E+03
    -16.481  0.1161E+03  0.2230E+03
    -16.364  0.1180E+03  0.2369E+03
    -16.247  0.1197E+03  0.2510E+03
    -16.130  0.1210E+03  0.2653E+03
    -16.013  0.1218E+03  0.2797E+03
    -15.896  0.1221E+03  0.2941E+03
    -15.779  0.1220E+03  0.3086E+03
    -15.662  0.1215E+03  0.3229E+03
    -15.545  0.1209E+03  0.3372E+03
    -15.428  0.1200E+03  0.3514E+03
    -15.311  0.1190E+03  0.3655E+03
    -15.194  0.1178E+03  0.3795E+03
    -15.077  0.1162E+03  0.3933E+03
    -14.960  0.1141E+03  0.4068E+03
    -14.843  0.1115E+03  0.4200E+03
    -14.726  0.1084E+03  0.4329E+03
    -14.609  0.1050E+03  0.4454E+03
    -14.492  0.1012E+03  0.4574E+03
    -14.375  0.9736E+02  0.4690E+03
    -14.258  0.9341E+02  0.4801E+03
    -14.141  0.8943E+02  0.4907E+03
    -14.024  0.8546E+02  0.5009E+03
    -13.907  0.8150E+02  0.5106E+03
    -13.790  0.7750E+02  0.5198E+03
    -13.673  0.7341E+02  0.5286E+03
    -13.556  0.6916E+02  0.5368E+03
    -13.439  0.6467E+02  0.5445E+03
    -13.322  0.5993E+02  0.5517E+03
    -13.205  0.5493E+02  0.5583E+03
    -13.088  0.4976E+02  0.5642E+03
    -12.971  0.4453E+02  0.5696E+03
    -12.854  0.3939E+02  0.5743E+03
    -12.738  0.3447E+02  0.5784E+03
    -12.621  0.2988E+02  0.5820E+03
    -12.504  0.2568E+02  0.5851E+03
    -12.387  0.2188E+02  0.5878E+03
    -12.270  0.1850E+02  0.5900E+03
    -12.153  0.1551E+02  0.5919E+03
    -12.036  0.1289E+02  0.5935E+03
    -11.919  0.1062E+02  0.5947E+03
    -11.802  0.8705E+01  0.5958E+03
    -11.685  0.7115E+01  0.5967E+03
    -11.568  0.5819E+01  0.5974E+03
    -11.451  0.4768E+01  0.5980E+03
    -11.334  0.3903E+01  0.5985E+03
    -11.217  0.3169E+01  0.5988E+03
    -11.100  0.2534E+01  0.5992E+03
    -10.983  0.1981E+01  0.5994E+03
    -10.866  0.1509E+01  0.5996E+03
    -10.749  0.1126E+01  0.5997E+03
    -10.632  0.8298E+00  0.5998E+03
    -10.515  0.6178E+00  0.5999E+03
    -10.398  0.4869E+00  0.6000E+03
    -10.281  0.4360E+00  0.6000E+03
    -10.164  0.4616E+00  0.6001E+03
    -10.047  0.5680E+00  0.6001E+03
     -9.930  0.7614E+00  0.6002E+03
     -9.813  0.1045E+01  0.6004E+03
     -9.696  0.1419E+01  0.6005E+03
     -9.579  0.1878E+01  0.6007E+03
     -9.462  0.2424E+01  0.6010E+03
     -9.345  0.3055E+01  0.6014E+03
     -9.228  0.3783E+01  0.6018E+03
     -9.111  0.4613E+01  0.6024E+03
     -8.995  0.5548E+01  0.6030E+03
     -8.878  0.6606E+01  0.6038E+03
     -8.761  0.7818E+01  0.6047E+03
     -8.644  0.9244E+01  0.6058E+03
     -8.527  0.1096E+02  0.6071E+03
     -8.410  0.1301E+02  0.6086E+03
     -8.293  0.1543E+02  0.6104E+03
     -8.176  0.1818E+02  0.6125E+03
     -8.059  0.2120E+02  0.6150E+03
     -7.942  0.2439E+02  0.6179E+03
     -7.825  0.2766E+02  0.6211E+03
     -7.708  0.3091E+02  0.6247E+03
     -7.591  0.3409E+02  0.6287E+03
     -7.474  0.3717E+02  0.6331E+03
     -7.357  0.4019E+02  0.6378E+03
     -7.240  0.4317E+02  0.6429E+03
     -7.123  0.4615E+02  0.6484E+03
     -7.006  0.4918E+02  0.6541E+03
     -6.889  0.5226E+02  0.6603E+03
     -6.772  0.5538E+02  0.6668E+03
     -6.655  0.5849E+02  0.6737E+03
     -6.538  0.6154E+02  0.6810E+03
     -6.421  0.6451E+02  0.6886E+03
     -6.304  0.6739E+02  0.6965E+03
     -6.187  0.7017E+02  0.7048E+03
     -6.070  0.7288E+02  0.7134E+03
     -5.953  0.7553E+02  0.7224E+03
     -5.836  0.7813E+02  0.7316E+03
     -5.719  0.8073E+02  0.7411E+03
     -5.602  0.8335E+02  0.7510E+03
     -5.485  0.8600E+02  0.7612E+03
     -5.368  0.8865E+02  0.7716E+03
     -5.252  0.9130E+02  0.7824E+03
     -5.135  0.9397E+02  0.7935E+03
     -5.018  0.9669E+02  0.8050E+03
     -4.901  0.9959E+02  0.8167E+03
     -4.784  0.1028E+03  0.8289E+03
     -4.667  0.1065E+03  0.8414E+03
     -4.550  0.1107E+03  0.8545E+03
     -4.433  0.1153E+03  0.8681E+03
     -4.316  0.1201E+03  0.8823E+03
     -4.199  0.1251E+03  0.8971E+03
     -4.082  0.1301E+03  0.9125E+03
     -3.965  0.1351E+03  0.9284E+03
     -3.848  0.1400E+03  0.9450E+03
     -3.731  0.1449E+03  0.9621E+03
     -3.614  0.1495E+03  0.9798E+03
     -3.497  0.1539E+03  0.9979E+03
     -3.380  0.1580E+03  0.1017E+04
     -3.263  0.1620E+03  0.1036E+04
     -3.146  0.1659E+03  0.1055E+04
     -3.029  0.1699E+03  0.1075E+04
     -2.912  0.1739E+03  0.1096E+04
     -2.795  0.1781E+03  0.1117E+04
     -2.678  0.1824E+03  0.1139E+04
     -2.561  0.1868E+03  0.1161E+04
     -2.444  0.1913E+03  0.1183E+04
     -2.327  0.1959E+03  0.1206E+04
     -2.210  0.2007E+03  0.1230E+04
     -2.093  0.2056E+03  0.1255E+04
     -1.976  0.2105E+03  0.1279E+04
     -1.859  0.2155E+03  0.1305E+04
     -1.742  0.2204E+03  0.1331E+04
     -1.625  0.2248E+03  0.1358E+04
     -1.508  0.2288E+03  0.1385E+04
     -1.392  0.2324E+03  0.1412E+04
     -1.275  0.2355E+03  0.1440E+04
     -1.158  0.2385E+03  0.1468E+04
     -1.041  0.2414E+03  0.1497E+04
     -0.924  0.2443E+03  0.1526E+04
     -0.807  0.2471E+03  0.1555E+04
     -0.690  0.2497E+03  0.1584E+04
     -0.573  0.2521E+03  0.1614E+04
     -0.456  0.2542E+03  0.1644E+04
     -0.339  0.2560E+03  0.1675E+04
     -0.222  0.2574E+03  0.1705E+04
     -0.105  0.2585E+03  0.1736E+04
      0.012  0.2591E+03  0.1766E+04
      0.129  0.2592E+03  0.1797E+04
      0.246  0.2586E+03  0.1828E+04
      0.363  0.2573E+03  0.1858E+04
      0.480  0.2551E+03  0.1888E+04
      0.597  0.2520E+03  0.1918E+04
      0.714  0.2480E+03  0.1948E+04
      0.831  0.2434E+03  0.1976E+04
      0.948  0.2383E+03  0.2005E+04
      1.065  0.2327E+03  0.2032E+04
      1.182  0.2268E+03  0.2059E+04
      1.299  0.2206E+03  0.2085E+04
      1.416  0.2140E+03  0.2111E+04
      1.533  0.2069E+03  0.2135E+04
      1.650  0.1994E+03  0.2159E+04
      1.767  0.1915E+03  0.2182E+04
      1.884  0.1834E+03  0.2203E+04
      2.001  0.1753E+03  0.2224E+04
      2.118  0.1670E+03  0.2244E+04
      2.235  0.1587E+03  0.2263E+04
      2.351  0.1502E+03  0.2281E+04
      2.468  0.1413E+03  0.2298E+04
      2.585  0.1321E+03  0.2313E+04
      2.702  0.1227E+03  0.2328E+04
      2.819  0.1129E+03  0.2341E+04
      2.936  0.1030E+03  0.2354E+04
      3.053  0.9310E+02  0.2365E+04
      3.170  0.8344E+02  0.2375E+04
      3.287  0.7440E+02  0.2384E+04
      3.404  0.6632E+02  0.2391E+04
      3.521  0.5945E+02  0.2399E+04
      3.638  0.5386E+02  0.2405E+04
      3.755  0.4950E+02  0.2411E+04
      3.872  0.4626E+02  0.2416E+04
      3.989  0.4402E+02  0.2422E+04
      4.106  0.4263E+02  0.2427E+04
      4.223  0.4193E+02  0.2432E+04
      4.340  0.4178E+02  0.2437E+04
      4.457  0.4205E+02  0.2442E+04
      4.574  0.4263E+02  0.2447E+04
      4.691  0.4346E+02  0.2452E+04
      4.808  0.4450E+02  0.2457E+04
      4.925  0.4578E+02  0.2463E+04
      5.042  0.4732E+02  0.2468E+04
      5.159  0.4916E+02  0.2474E+04
      5.276  0.5128E+02  0.2480E+04
      5.393  0.5364E+02  0.2486E+04
      5.510  0.5620E+02  0.2493E+04
      5.627  0.5892E+02  0.2500E+04
      5.744  0.6174E+02  0.2507E+04
      5.861  0.6461E+02  0.2515E+04
      5.978  0.6745E+02  0.2523E+04
      6.094  0.7019E+02  0.2531E+04
      6.211  0.7282E+02  0.2540E+04
      6.328  0.7538E+02  0.2549E+04
      6.445  0.7793E+02  0.2558E+04
      6.562  0.8052E+02  0.2567E+04
      6.679  0.8313E+02  0.2577E+04
      6.796  0.8572E+02  0.2587E+04
      6.913  0.8822E+02  0.2598E+04
      7.030  0.9057E+02  0.2609E+04
      7.147  0.9272E+02  0.2620E+04
      7.264  0.9463E+02  0.2631E+04
      7.381  0.9630E+02  0.2642E+04
      7.498  0.9776E+02  0.2654E+04
      7.615  0.9904E+02  0.2666E+04
      7.732  0.1002E+03  0.2677E+04
      7.849  0.1013E+03  0.2689E+04
      7.966  0.1024E+03  0.2701E+04
      8.083  0.1034E+03  0.2714E+04
      8.200  0.1042E+03  0.2726E+04
      8.317  0.1050E+03  0.2739E+04
      8.434  0.1054E+03  0.2751E+04
      8.551  0.1056E+03  0.2763E+04
      8.668  0.1053E+03  0.2776E+04
      8.785  0.1044E+03  0.2788E+04
      8.902  0.1026E+03  0.2800E+04
      9.019  0.9974E+02  0.2812E+04
      9.136  0.9548E+02  0.2824E+04
      9.253  0.8953E+02  0.2834E+04
      9.370  0.8170E+02  0.2844E+04
      9.487  0.7206E+02  0.2852E+04
      9.604  0.6099E+02  0.2860E+04
      9.721  0.4927E+02  0.2866E+04
      9.838  0.3787E+02  0.2870E+04
      9.954  0.2772E+02  0.2873E+04
     10.071  0.1943E+02  0.2876E+04
     10.188  0.1313E+02  0.2877E+04
     10.305  0.8631E+01  0.2878E+04
     10.422  0.5559E+01  0.2879E+04
     10.539  0.3525E+01  0.2879E+04
     10.656  0.2210E+01  0.2880E+04
     10.773  0.1372E+01  0.2880E+04
     10.890  0.8414E+00  0.2880E+04
     11.007  0.5083E+00  0.2880E+04
     11.124  0.2995E+00  0.2880E+04
     11.241  0.1687E+00  0.2880E+04
     11.358  0.8926E-01  0.2880E+04
     11.475  0.4068E-01  0.2880E+04
     11.592  0.1333E-01  0.2880E+04
     11.709  0.0000E+00  0.2880E+04
     11.826  0.0000E+00  0.2880E+04
     11.943  0.0000E+00  0.2880E+04
     12.060  0.0000E+00  0.2880E+04
     12.177  0.0000E+00  0.2880E+04
     12.24400733    -22.60851819  301      3.30048410      1.00000000
    -22.609  0.0000E+00  0.0000E+00
    -22.492  0.0000E+00  0.0000E+00
    -22.376  0.0000E+00  0.0000E+00
    -22.260  0.0000E+00  0.0000E+00
    -22.144  0.5590E-02  0.6495E-03
    -22.028  0.5725E-02  0.1312E-02
    -21.911  0.8245E-02  0.2267E-02
    -21.795  0.1381E-01  0.3866E-02
    -21.679  0.2353E-01  0.6591E-02
    -21.563  0.3973E-01  0.1119E-01
    -21.447  0.6333E-01  0.1853E-01
    -21.331  0.1001E+00  0.3012E-01
    -21.214  0.1593E+00  0.4857E-01
    -21.098  0.2523E+00  0.7780E-01
    -20.982  0.3989E+00  0.1240E+00
    -20.866  0.6214E+00  0.1960E+00
    -20.750  0.9608E+00  0.3073E+00
    -20.634  0.1466E+01  0.4771E+00
    -20.517  0.2184E+01  0.7301E+00
    -20.401  0.3164E+01  0.1096E+01
    -20.285  0.4418E+01  0.1608E+01
    -20.169  0.5916E+01  0.2293E+01
    -20.053  0.7610E+01  0.3173E+01
    -19.936  0.9479E+01  0.4270E+01
    -19.820  0.1155E+02  0.5606E+01
    -19.704  0.1388E+02  0.7211E+01
    -19.588  0.1650E+02  0.9121E+01
    -19.472  0.1938E+02  0.1136E+02
    -19.356  0.2246E+02  0.1396E+02
    -19.239  0.2570E+02  0.1694E+02
    -19.123  0.2912E+02  0.2032E+02
    -19.007  0.3275E+02  0.2411E+02
    -18.891  0.3665E+02  0.2836E+02
    -18.775  0.4090E+02  0.3310E+02
    -18.659  0.4555E+02  0.3838E+02
    -18.542  0.5063E+02  0.4425E+02
    -18.426  0.5607E+02  0.5075E+02
    -18.310  0.6171E+02  0.5791E+02
    -18.194  0.6736E+02  0.6573E+02
    -18.078  0.7285E+02  0.7418E+02
    -17.962  0.7813E+02  0.8325E+02
    -17.845  0.8320E+02  0.9290E+02
    -17.729  0.8812E+02  0.1031E+03
    -17.613  0.9288E+02  0.1139E+03
    -17.497  0.9742E+02  0.1252E+03
    -17.381  0.1017E+03  0.1370E+03
    -17.264  0.1055E+03  0.1493E+03
    -17.148  0.1089E+03  0.1619E+03
    -17.032  0.1119E+03  0.1749E+03
    -16.916  0.1146E+03  0.1882E+03
    -16.800  0.1170E+03  0.2018E+03
    -16.684  0.1193E+03  0.2157E+03
    -16.567  0.1214E+03  0.2298E+03
    -16.451  0.1233E+03  0.2441E+03
    -16.335  0.1250E+03  0.2587E+03
    -16.219  0.1266E+03  0.2734E+03
    -16.103  0.1280E+03  0.2883E+03
    -15.987  0.1291E+03  0.3033E+03
    -15.870  0.1298E+03  0.3184E+03
    -15.754  0.1300E+03  0.3335E+03
    -15.638  0.1296E+03  0.3486E+03
    -15.522  0.1286E+03  0.3636E+03
    -15.406  0.1272E+03  0.3784E+03
    -15.289  0.1253E+03  0.3929E+03
    -15.173  0.1230E+03  0.4073E+03
    -15.057  0.1204E+03  0.4213E+03
    -14.941  0.1175E+03  0.4349E+03
    -14.825  0.1142E+03  0.4482E+03
    -14.709  0.1106E+03  0.4611E+03
    -14.592  0.1067E+03  0.4735E+03
    -14.476  0.1026E+03  0.4855E+03
    -14.360  0.9834E+02  0.4969E+03
    -14.244  0.9403E+02  0.5079E+03
    -14.128  0.8960E+02  0.5183E+03
    -14.012  0.8493E+02  0.5282E+03
    -13.895  0.7986E+02  0.5375E+03
    -13.779  0.7431E+02  0.5462E+03
    -13.663  0.6832E+02  0.5542E+03
    -13.547  0.6200E+02  0.5614E+03
    -13.431  0.5550E+02  0.5679E+03
    -13.315  0.4899E+02  0.5736E+03
    -13.198  0.4261E+02  0.5786E+03
    -13.082  0.3652E+02  0.5828E+03
    -12.966  0.3084E+02  0.5864E+03
    -12.850  0.2567E+02  0.5894E+03
    -12.734  0.2109E+02  0.5919E+03
    -12.617  0.1711E+02  0.5939E+03
    -12.501  0.1369E+02  0.5955E+03
    -12.385  0.1075E+02  0.5968E+03
    -12.269  0.8238E+01  0.5977E+03
    -12.153  0.6118E+01  0.5984E+03
    -12.037  0.4387E+01  0.5990E+03
    -11.920  0.3040E+01  0.5993E+03
    -11.804  0.2041E+01  0.5996E+03
    -11.688  0.1337E+01  0.5997E+03
    -11.572  0.8577E+00  0.5998E+03
    -11.456  0.5405E+00  0.5999E+03
    -11.340  0.3370E+00  0.5999E+03
    -11.223  0.2059E+00  0.6000E+03
    -11.107  0.1247E+00  0.6000E+03
    -10.991  0.7444E-01  0.6000E+03
    -10.875  0.4345E-01  0.6000E+03
    -10.759  0.2678E-01  0.6000E+03
    -10.642  0.1712E-01  0.6000E+03
    -10.526  0.1402E-01  0.6000E+03
    -10.410  0.1337E-01  0.6000E+03
    -10.294  0.1977E-01  0.6000E+03
    -10.178  0.3099E-01  0.6000E+03
    -10.062  0.5010E-01  0.6000E+03
     -9.945  0.8129E-01  0.6000E+03
     -9.829  0.1297E+00  0.6000E+03
     -9.713  0.2045E+00  0.6001E+03
     -9.597  0.3218E+00  0.6001E+03
     -9.481  0.5023E+00  0.6002E+03
     -9.365  0.7763E+00  0.6002E+03
     -9.248  0.1183E+01  0.6004E+03
     -9.132  0.1766E+01  0.6006E+03
     -9.016  0.2574E+01  0.6009E+03
     -8.900  0.3650E+01  0.6013E+03
     -8.784  0.5022E+01  0.6019E+03
     -8.668  0.6713E+01  0.6027E+03
     -8.551  0.8728E+01  0.6037E+03
     -8.435  0.1107E+02  0.6050E+03
     -8.319  0.1374E+02  0.6066E+03
     -8.203  0.1672E+02  0.6085E+03
     -8.087  0.1999E+02  0.6108E+03
     -7.970  0.2349E+02  0.6135E+03
     -7.854  0.2714E+02  0.6167E+03
     -7.738  0.3088E+02  0.6203E+03
     -7.622  0.3465E+02  0.6243E+03
     -7.506  0.3846E+02  0.6287E+03
     -7.390  0.4231E+02  0.6336E+03
     -7.273  0.4620E+02  0.6390E+03
     -7.157  0.5007E+02  0.6448E+03
     -7.041  0.5386E+02  0.6511E+03
     -6.925  0.5749E+02  0.6577E+03
     -6.809  0.6090E+02  0.6648E+03
     -6.693  0.6401E+02  0.6723E+03
     -6.576  0.6680E+02  0.6800E+03
     -6.460  0.6926E+02  0.6881E+03
     -6.344  0.7139E+02  0.6964E+03
     -6.228  0.7325E+02  0.7049E+03
     -6.112  0.7497E+02  0.7136E+03
     -5.995  0.7666E+02  0.7225E+03
     -5.879  0.7848E+02  0.7316E+03
     -5.763  0.8051E+02  0.7410E+03
     -5.647  0.8279E+02  0.7506E+03
     -5.531  0.8530E+02  0.7605E+03
     -5.415  0.8798E+02  0.7707E+03
     -5.298  0.9078E+02  0.7813E+03
     -5.182  0.9370E+02  0.7922E+03
     -5.066  0.9678E+02  0.8034E+03
     -4.950  0.1001E+03  0.8151E+03
     -4.834  0.1036E+03  0.8271E+03
     -4.718  0.1074E+03  0.8396E+03
     -4.601  0.1115E+03  0.8525E+03
     -4.485  0.1158E+03  0.8660E+03
     -4.369  0.1204E+03  0.8800E+03
     -4.253  0.1252E+03  0.8945E+03
     -4.137  0.1300E+03  0.9097E+03
     -4.021  0.1351E+03  0.9254E+03
     -3.904  0.1403E+03  0.9417E+03
     -3.788  0.1455E+03  0.9586E+03
     -3.672  0.1507E+03  0.9761E+03
     -3.556  0.1558E+03  0.9942E+03
     -3.440  0.1606E+03  0.1013E+04
     -3.323  0.1651E+03  0.1032E+04
     -3.207  0.1694E+03  0.1052E+04
     -3.091  0.1735E+03  0.1072E+04
     -2.975  0.1775E+03  0.1093E+04
     -2.859  0.1814E+03  0.1114E+04
     -2.743  0.1854E+03  0.1135E+04
     -2.626  0.1896E+03  0.1157E+04
     -2.510  0.1940E+03  0.1180E+04
     -2.394  0.1987E+03  0.1203E+04
     -2.278  0.2034E+03  0.1227E+04
     -2.162  0.2080E+03  0.1251E+04
     -2.046  0.2125E+03  0.1275E+04
     -1.929  0.2167E+03  0.1301E+04
     -1.813  0.2208E+03  0.1326E+04
     -1.697  0.2248E+03  0.1352E+04
     -1.581  0.2285E+03  0.1379E+04
     -1.465  0.2322E+03  0.1406E+04
     -1.348  0.2359E+03  0.1433E+04
     -1.232  0.2395E+03  0.1461E+04
     -1.116  0.2431E+03  0.1490E+04
     -1.000  0.2467E+03  0.1518E+04
     -0.884  0.2502E+03  0.1547E+04
     -0.768  0.2534E+03  0.1577E+04
     -0.651  0.2561E+03  0.1607E+04
     -0.535  0.2582E+03  0.1637E+04
     -0.419  0.2597E+03  0.1667E+04
     -0.303  0.2606E+03  0.1697E+04
     -0.187  0.2610E+03  0.1727E+04
     -0.071  0.2610E+03  0.1758E+04
      0.046  0.2608E+03  0.1788E+04
      0.162  0.2602E+03  0.1818E+04
      0.278  0.2594E+03  0.1849E+04
      0.394  0.2580E+03  0.1879E+04
      0.510  0.2560E+03  0.1908E+04
      0.626  0.2533E+03  0.1938E+04
      0.743  0.2497E+03  0.1967E+04
      0.859  0.2453E+03  0.1995E+04
      0.975  0.2400E+03  0.2023E+04
      1.091  0.2340E+03  0.2051E+04
      1.207  0.2274E+03  0.2077E+04
      1.324  0.2204E+03  0.2103E+04
      1.440  0.2132E+03  0.2128E+04
      1.556  0.2059E+03  0.2152E+04
      1.672  0.1987E+03  0.2175E+04
      1.788  0.1915E+03  0.2197E+04
      1.904  0.1845E+03  0.2218E+04
      2.021  0.1774E+03  0.2239E+04
      2.137  0.1701E+03  0.2259E+04
      2.253  0.1623E+03  0.2278E+04
      2.369  0.1540E+03  0.2296E+04
      2.485  0.1452E+03  0.2313E+04
      2.601  0.1356E+03  0.2328E+04
      2.718  0.1253E+03  0.2343E+04
      2.834  0.1143E+03  0.2356E+04