  450  450   50    1
  0.1287379E+02  0.1796000E-08  0.1796000E-08  0.1796000E-08  0.1000000E-14
   5000.00000000000     
  CAR 
 silica                                  
   2400      1   1440
