LAMMPS (29 Oct 2020)
OMP_NUM_THREADS environment is not set. Defaulting to 1 thread. (src/comm.cpp:94)
  using 1 OpenMP thread(s) per MPI task
units 		real
dimension 	3
processors 	* * *
boundary 	p p p
atom_style 	charge
atom_modify	map array

#pair_style     hybrid/overlay coul/long 10.0 table linear 10000
pair_style     table linear 10000
read_data       tmp.dat
Reading data file ...
  orthogonal box = (-0.42652611 -0.42652611 -0.42652611) to (19.151951 19.151951 19.151951)
  2 by 3 by 4 MPI processor grid
  reading atoms ...
  450 atoms
  reading velocities ...
  450 velocities
  read_data CPU = 0.004 seconds
#pair_coeff     * * coul/long
pair_coeff     2 2 ../ff_fitting.table OO
WARNING: 30 of 8000 force values in table OO are inconsistent with -dE/dr.
  Should only be flagged at inflection points (src/pair_table.cpp:461)
pair_coeff     1 2 ../ff_fitting.table SiO
WARNING: 7 of 8000 force values in table SiO are inconsistent with -dE/dr.
  Should only be flagged at inflection points (src/pair_table.cpp:461)
pair_coeff     1 1 ../ff_fitting.table SiSi
WARNING: 16 of 8000 force values in table SiSi are inconsistent with -dE/dr.
  Should only be flagged at inflection points (src/pair_table.cpp:461)

#kspace_style    pppm 1.0e-5
neighbor        2.0 bin
neigh_modify    every 1 check yes
timestep	1

dump 1 all custom 100000 sim.xyz id type x y z

thermo_style    custom step temp pe press pxx pyy pzz pxy pxz pyz lx ly lz xy yz xz density
thermo          100000

##generate velocity
velocity        all create 3000 350
#velocity       all scale 0

#NVT run
fix              1 all npt temp 3000 0.01 100 iso 0 0 1000
run              30000000
Neighbor list info ...
  update every 1 steps, delay 10 steps, check yes
  max neighbors/atom: 2000, page size: 100000
  master list distance cutoff = 10
  ghost atom cutoff = 10
  binsize = 5, bins = 4 4 4
  1 neighbor lists, perpetual/occasional/extra = 1 0 0
  (1) pair table, perpetual
      attributes: half, newton on
      pair build: half/bin/atomonly/newton
      stencil: half/bin/3d/newton
      bin: standard
Per MPI rank memory allocation (min/avg/max) = 4.377 | 4.381 | 4.384 Mbytes
Step Temp PotEng Press Pxx Pyy Pzz Pxy Pxz Pyz Lx Ly Lz Xy Yz Xz Density 
       0         3000   -39923.927   -4451.1413   -14049.456    3271.5155   -2575.4837    1779.7367    -4922.189   -3626.6993    19.578477    19.578477    19.578477            0            0            0    1.9941047 
  100000    2849.0282   -39383.561    2043.9328    261.66664    3893.6537     1976.478    6281.1958    461.72858    -409.2959    19.406826    19.406826    19.406826            0            0            0    2.0474871 
  200000    2943.6409   -39495.325    6922.8794    966.71673    16676.733    3125.1886    4222.1613    460.87711    8131.5701    19.572151    19.572151    19.572151            0            0            0     1.996039 
  300000    2916.2913   -39743.719   -6889.2363   -5463.4205   -19387.741    4183.4525    1530.0724   -1862.9146    4343.2694    19.495983    19.495983    19.495983            0            0            0    2.0195254 
  400000    3080.8032   -39747.753    153.46109    11941.115   -12505.332    1024.5999    8873.5253     7581.806   -2947.3405    19.620685    19.620685    19.620685            0            0            0    1.9812634 
  500000     2975.022   -39705.984   -4758.1443   -5557.7443   -11206.238    2489.5494    6795.0997   -82.298151     4038.085    19.729263    19.729263    19.729263            0            0            0     1.948732 
  600000    2835.4337   -40232.352    5342.3196    9056.8061    11380.326    -4410.173   -2274.0261    4945.3521    3485.5967    19.309341    19.309341    19.309341            0            0            0    2.0786545 
  700000    3020.1465   -39844.427    4745.1922    5603.1207    1486.0705    7146.3855    4964.8885    4372.3167   -413.89788    19.475184    19.475184    19.475184            0            0            0    2.0260027 
  800000    2878.8575   -40014.691    5646.8214   -1736.6902    11817.599    6859.5556   -1472.2228     1656.709    8574.0861    19.444417    19.444417    19.444417            0            0            0    2.0356352 
  900000    3086.1578   -39474.834   -4230.2982   -5072.3761   -2955.4099   -4663.1086    8755.6231    713.73929    12505.468    19.591474    19.591474    19.591474            0            0            0    1.9901388 
 1000000    3085.3687   -40294.948   -2145.6251    5105.5732   -11016.661   -525.78736   -10285.841    849.96444   -2803.3385    19.273937    19.273937    19.273937            0            0            0    2.0901305 
 1100000    2881.2106   -39955.995   -6040.5854    2589.6642   -4306.6687   -16404.752    6093.4047    -2478.633     8521.207    19.738407    19.738407    19.738407            0            0            0    1.9460248 
 1200000    2840.6674   -40408.356    19961.562    13551.747    23490.592    22842.346    5966.7211    -2519.551    5956.2685    19.073268    19.073268    19.073268            0            0            0    2.1567976 
 1300000    2932.8699   -39993.176    2261.5084    3778.9327   -9743.8417    12749.434    4706.3929   -11880.171    2037.2752     19.22299     19.22299     19.22299            0            0            0    2.1067932 
 1400000    2761.7153   -39947.985   -1139.9046   -3969.6562    -2666.605    3216.5475    4623.0848     10893.14    6907.7315    19.660869    19.660869    19.660869            0            0            0    1.9691399 
 1500000    2906.8832   -40300.897   -8904.3787   -7875.7732   -1133.1718   -17704.191   -3169.2965    739.18304   -2450.1929    19.457684    19.457684    19.457684            0            0            0     2.031474 
 1600000    2878.7989   -39935.382   -8292.6873   -6486.0968   -4435.2486   -13956.716    10025.367    7784.7102    4837.7611    19.435272    19.435272    19.435272            0            0            0    2.0385099 
 1700000    2741.4851   -40080.484    2974.2163   -161.61428    98.551473    8985.7118   -923.22232    4619.4472    14388.706    19.366612    19.366612    19.366612            0            0            0    2.0602682 
 1800000    2654.6941   -40637.688    3117.5104     -148.638    16126.051   -6624.8816   -5419.5031    2055.9578    12905.643    19.199146    19.199146    19.199146            0            0            0    2.1146522 
 1900000     2758.581   -40184.828   -4928.6424   -12386.836    647.56867   -3046.6597    5990.0074   -4973.4644    5132.2311    19.667159    19.667159    19.667159            0            0            0    1.9672513 
 2000000    2959.9204   -40489.334    1675.5369    6348.7771   -2081.4094    759.24297    10977.878   -3205.7781   -9484.0793    19.215876    19.215876    19.215876            0            0            0    2.1091338 
 2100000    2631.2836   -40623.747   -532.69549   -47.996927    7939.3873   -9489.4768    4044.6602   -757.16102   -331.31059    19.195344    19.195344    19.195344            0            0            0     2.115909 
 2200000    2786.0058   -40631.521   -2301.8017   -3603.8974   -6410.2082    3108.7004    12403.216    639.38014   -8565.8918    19.160739    19.160739    19.160739            0            0            0     2.127394 
 2300000    2706.3207   -40631.789   -621.54368   -5429.3201   -7157.6855    10722.375   -8973.3048   -1623.8098     2625.125    19.285474    19.285474    19.285474            0            0            0    2.0863817 
 2400000    2760.0667   -40718.505    7548.2109    3749.5882     46.65389    18848.391   -6188.1745    229.93525   -6731.4879    19.348077    19.348077    19.348077            0            0            0    2.0661947 
 2500000    2760.7423    -40304.26    8308.4044    10143.329    7990.1302    6791.7542   -4520.8015   -634.31337   -6910.4291    19.190656    19.190656    19.190656            0            0            0      2.11746 
 2600000    2741.0048   -40811.416   -5798.4801   -2227.0069   -16820.791    1652.3578    196.80005   -924.37839   -8364.3435    19.262806    19.262806    19.262806            0            0            0    2.0937557 
 2700000    2631.2184   -40674.658   -3643.9114   -12559.617    4589.3794   -2961.4969     959.1078   -9158.1949    11178.102    19.098302    19.098302    19.098302            0            0            0    2.1483271 
 2800000    2719.1064   -40718.861   -3382.6716    -5892.374   -3006.4437    -1249.197   -5521.0951    5228.6226   -5650.1744    19.283134    19.283134    19.283134            0            0            0    2.0871413 
 2900000    2606.2494   -40943.869   -11895.098   -11623.504   -18489.875   -5571.9158    5604.6671    272.47525    8097.2827    19.270177    19.270177    19.270177            0            0            0    2.0913541 
 3000000    2760.1757   -40803.364     1181.569    -5306.368    480.20832    8370.8666    4092.4783   -6568.3386   -1004.1639    19.319561    19.319561    19.319561            0            0            0    2.0753576 
 3100000    2619.9764   -40680.912    9020.1859    18252.281    9697.8172   -889.54005   -2558.5647    9286.8263    -6883.802    19.256324    19.256324    19.256324            0            0            0    2.0958709 
 3200000    2637.9193    -41212.96    2462.0018    4378.3104     -231.496     3239.191     7259.197   -4928.1761    1449.9825     19.30762     19.30762     19.30762            0            0            0    2.0792106 
 3300000    2580.2549   -40764.852    853.71517    3738.7559    -26.07049   -1151.5399   -3828.1446   -5251.8693    -3376.311    19.606908    19.606908    19.606908            0            0            0    1.9854427 
 3400000     2620.324   -40750.218    -1386.506    5208.6645   -8575.7468   -792.43563   -4692.3586   -5017.3449   -8630.3847    19.246171    19.246171    19.246171            0            0            0    2.0991898 
 3500000    2623.8987   -41098.151    3282.8945    165.62549    1567.7029    8115.3552    -9906.122    3814.0017    4174.5662    19.401033    19.401033    19.401033            0            0            0    2.0493215 
 3600000    2679.2257   -41185.658    16675.273   -4817.9661    27269.949    27573.835    5032.4032   -5156.8694    2136.5351    19.033049    19.033049    19.033049            0            0            0    2.1704991 
 3700000    2569.1544   -40773.105    5113.7066    177.55252    5072.8967    10090.671   -4212.8404   -2031.1915    3218.7063    19.463829    19.463829    19.463829            0            0            0    2.0295506 
 3800000    2656.9549    -41251.48    3107.2795    8862.5213    959.57289   -500.25578    3138.6681    3339.3299    1828.9998    19.056905    19.056905    19.056905            0            0            0     2.162358 
 3900000    2499.2292   -40891.564   -7545.5207   -3362.6903   -1885.5396   -17388.332   -5602.1863    11124.804    9213.2606    19.286565    19.286565    19.286565            0            0            0    2.0860275 
 4000000    2571.6258    -41048.23    2992.6778    13781.027   -563.12978   -4239.8642    5933.1084    -5586.098    4260.3047    19.340533    19.340533    19.340533            0            0            0    2.0686138 
 4100000    2638.5522   -40807.468   -11912.052    2288.7956   -21895.109   -16129.843   -4242.3828   -2277.4888    1686.5929    19.102981    19.102981    19.102981            0            0            0    2.1467491 
 4200000    2800.7721   -41182.545    10112.473    12357.455     9658.979    8320.9862    7559.0201    -7594.661    9978.5912    19.155453    19.155453    19.155453            0            0            0    2.1291557 
 4300000    2690.0519   -41265.192   -4175.6314    8018.0806   -1951.9261   -18593.049   -717.38799   -3862.1064   -9041.6239    19.307509    19.307509    19.307509            0            0            0    2.0792466 
 4400000    2472.9874   -40890.788    92.965612    575.48662    7701.2803   -7997.8701   -1971.4049   -769.16829   -4165.4482    19.257482    19.257482    19.257482            0            0            0    2.0954929 
 4500000    2609.5752   -41451.664     -1743.35    6229.3206   -12572.922    1113.5518   -3629.4238   -4108.3487   -4159.8356    19.276472    19.276472    19.276472            0            0            0    2.0893059 
 4600000    2689.5109   -41372.284   -1495.1072   -7833.5276    9430.6561   -6082.4501   -771.65649     616.5948   -6915.6648    19.283592    19.283592    19.283592            0            0            0    2.0869926 
 4700000    2476.5049   -41294.454   -1969.9867   -2593.0712    6452.6308   -9769.5197    4405.7528    1115.7745    11513.913    19.033534    19.033534    19.033534            0            0            0    2.1703332 
 4800000    2667.6509    -41678.67   -1640.9384   -6149.2304   -8767.4333    9993.8486   -5116.8295   -2470.5163    2836.7729    19.332579    19.332579    19.332579            0            0            0    2.0711679 
 4900000    2513.4791   -41179.355   -12142.808    -10937.05   -12828.048   -12663.326    5781.7207    -2142.714    2440.7724    19.204049    19.204049    19.204049            0            0            0     2.113033 
 5000000    2715.8284   -41520.134    2731.3194    1969.5436   -1178.1063    7402.5208   -3793.8831    8005.1197    4085.8133    19.029014    19.029014    19.029014            0            0            0    2.1718799 
 5100000     2480.515   -41669.298     2193.539    2445.9704    7472.2285   -3337.5819    961.65772    6980.9504    4096.9626    19.177936    19.177936    19.177936            0            0            0    2.1216763 
 5200000    2548.5284   -41468.917    2922.4308    7570.8942   -12408.387    13604.785   -2146.3875    2871.4616   -954.93122    18.990265    18.990265    18.990265            0            0            0    2.1852021 
 5300000    2354.9079   -41480.386   -20293.628   -26064.764   -16097.296   -18718.825    892.94694     4999.464    -2253.921    19.241929    19.241929    19.241929            0            0            0    2.1005784 
 5400000    2515.1394    -41519.77    15678.783    12336.156    10459.242     24240.95   -717.54191    10893.888   -9393.4442    18.619533    18.619533    18.619533            0            0            0    2.3183466 
 5500000     2629.614   -41393.892     2536.388     1584.767    5007.6708    1016.7263    -6290.945     8518.791    4287.9705    19.243058    19.243058    19.243058            0            0            0    2.1002086 
 5600000    2430.4926   -41765.841   -5457.4797   -6583.7553    3064.0842   -12852.768     5769.824   -8627.6447   -6073.8817    19.312748    19.312748    19.312748            0            0            0    2.0775546 
 5700000    2392.2138   -41510.532   -7769.2736   -28736.364   -6381.3048    11809.848   -4647.6329    6169.4002   -337.83749    19.401754    19.401754    19.401754            0            0            0    2.0490932 
 5800000    2391.3376   -41473.492    -14629.56   -9751.7288   -18009.514   -16127.439    969.63673    3226.0927   -5795.3446    19.262687    19.262687    19.262687            0            0            0    2.0937948 
 5900000    2449.3008   -41718.427    3437.5118    10612.871   -2013.9725    1713.6369   -6351.9357   -2310.4044    2293.6556    18.979484    18.979484    18.979484            0            0            0    2.1889281 
 6000000    2717.0654   -41610.704    2002.9947    7598.8669   -5785.1512    4195.2684   -558.50128   -10048.292    2408.3753    19.163888    19.163888    19.163888            0            0            0    2.1263455 
 6100000     2270.932    -41507.26   -8938.1184     -7677.67   -21775.601    2638.9159   -8636.8764   -7062.1043    8882.9552    19.021444    19.021444    19.021444            0            0            0    2.1744743 
 6200000    2444.3486   -41935.151   -4156.4452    1088.5017    -3795.522   -9762.3152    16122.361   -4699.5177    -13716.66    19.163331    19.163331    19.163331            0            0            0    2.1265309 
 6300000    2359.0867   -42368.987    1021.1342    4434.6709    2058.1598    -3429.428    4208.8578    5607.7308   -1582.3594    18.946364    18.946364    18.946364            0            0            0    2.2004274 
 6400000    2452.5274   -42069.447    1602.2701   -112.96148   -581.11196    5500.8837    2338.5967   -1663.0804    9561.1933     19.10176     19.10176     19.10176            0            0            0    2.1471606 
 6500000    2283.4196   -42145.366    10698.745    8123.2464    9488.0317    14484.956   -1886.6742     -3003.51    7987.9896    19.197499    19.197499    19.197499            0            0            0    2.1151965 
 6600000    2302.6252    -41558.35   -6727.5826   -10884.953   -14905.127    5607.3313   -4186.6419    959.98211   -7108.1224     19.27473     19.27473     19.27473            0            0            0    2.0898724 
 6700000    2345.5126   -42064.199    -2958.927   -2017.5929   -3279.6794   -3579.5087    1368.0196    2967.3517    9295.9304    19.046602    19.046602    19.046602            0            0            0    2.1658691 
 6800000    2319.5239   -41870.954   -10566.995    -10492.69   -7879.6115   -13328.683    2763.0845    4338.9721   -4210.1685    19.093356    19.093356    19.093356            0            0            0    2.1499971 
 6900000    2380.1951    -42225.77    7150.3688    13691.678    5448.0639    2311.3648    5496.5554    5780.3747   -7428.7098    19.091998    19.091998    19.091998            0            0            0    2.1504559 
 7000000    2395.1939   -42449.962    19131.576    19234.108    11215.311    26945.309    -2704.783   -5293.4491   -2668.7295    18.920042    18.920042    18.920042            0            0            0    2.2096242 
 7100000    2230.2366   -42311.536    3260.0602    8460.9191     11005.78   -9686.5184    3863.6714     2839.549    -3411.171    18.948721    18.948721    18.948721            0            0            0    2.1996066 
 7200000    2225.2538   -42389.745   -756.90387   -8055.5337    2057.8725    3726.9496      227.497   -3614.8514    774.81581    19.086603    19.086603    19.086603            0            0            0    2.1522799 
 7300000    2242.6251   -41992.514   -1343.7502    4538.1099   -8519.4111   -49.949411   -8456.3646    12638.131    7975.1483    18.893993    18.893993    18.893993            0            0            0    2.2187759 
 7400000    2157.3016   -41984.627     4938.171   -4190.5135    12571.531    6433.4954    11222.359    2241.9273     6132.577     19.28888     19.28888     19.28888            0            0            0    2.0852764 
 7500000    2262.9028   -42272.926    9868.8491    3248.0536    14087.443     12271.05   -4268.7682    1944.3525   -3184.9878    18.912332    18.912332    18.912332            0            0            0    2.2123278 
 7600000    2266.2367   -42385.022    3606.1142    -77.25995    11517.263   -621.66026    114.39021   -5092.5403    4368.3843    18.965914    18.965914    18.965914            0            0            0    2.1936298 
 7700000    2290.2966   -42327.764    -691.7644    5571.8611    14.997624   -7662.1519    8844.3503    7416.7329    -4548.401    19.162087    19.162087    19.162087            0            0            0    2.1269451 
 7800000    2245.5821   -42343.056   -669.64013    3288.1201   -7844.0798    2547.0393    -3232.441    1282.4723    5535.5445     19.02972     19.02972     19.02972            0            0            0    2.1716385 
 7900000    2221.5645   -42384.785     9983.943    13866.033    14570.715    1515.0812   -739.88876    1708.2552    5261.6684    19.083045    19.083045    19.083045            0            0            0    2.1534842 
 8000000    2315.4407   -42308.002    7578.9199    16657.916    1613.3205    4465.5232   -451.89512   -8317.2314    2699.0489    18.928717    18.928717    18.928717            0            0            0    2.2065877 
 8100000    2100.1837   -42184.018    1816.7345    3231.6037     3106.199    -887.5992    -12483.63    10183.407   -10947.557    18.910812    18.910812    18.910812            0            0            0     2.212861 
 8200000    2170.8664    -42624.32    1746.6804    11391.949    -11676.89     5524.982   -3438.5661    3674.0382    6083.9167    18.684896    18.684896    18.684896            0            0            0    2.2941017 
 8300000    2262.1903   -42723.416   -5448.7922   -10782.046   -4385.7151   -1178.6159     3498.278   -11603.409   -7133.3076    19.267971    19.267971    19.267971            0            0            0    2.0920727 
 8400000      2206.73   -42561.934    17091.118    22502.578    19545.427    9225.3497   -4538.2994   -7354.6774   -1421.1942    18.872797    18.872797    18.872797            0            0            0    2.2262599 
 8500000    2137.5448   -42691.745    2307.4978    7508.5745    7404.0484   -7990.1296   -2231.4835     13479.05   -14390.529    18.815505    18.815505    18.815505            0            0            0    2.2466587 
 8600000    2167.5883   -42772.353   -1681.5323   -17293.525    9352.9905    2895.9377    1367.3877   -1037.9603   -3167.3854    19.123792    19.123792    19.123792            0            0            0    2.1397482 
 8700000    2108.1797   -42520.066   -6668.6357   -2221.0788   -5671.7876   -12113.041    10101.269   -773.61114   -475.84385    19.373534    19.373534    19.373534            0            0            0    2.0580607 
 8800000    2051.7035    -42695.85   -11975.804   -22444.656    1539.3566   -15022.115    3295.4286    8343.8356    386.17805    19.030166    19.030166    19.030166            0            0            0    2.1714856 
 8900000    2125.4861   -42869.941    2013.1926    7846.7009      9350.82   -11157.943    3135.5586   -2544.8676    9847.4595    19.099898    19.099898    19.099898            0            0            0    2.1477887 
 9000000    2190.0351   -42720.774   -502.98969   -499.28668   -208.69428   -800.98812    393.91068    6294.7494    1731.7877    18.977689    18.977689    18.977689            0            0            0    2.1895493 
 9100000    2125.4175   -42620.498    5313.2081    11143.829    3509.5903    1286.2048    2454.6979    4600.7982    2475.7252    18.922023    18.922023    18.922023            0            0            0    2.2089301 
 9200000    1928.3797   -42585.455   -8068.3873   -8640.2343     -7326.28   -8238.6476   -2880.3261   -1901.2226    6502.4571    19.086927    19.086927    19.086927            0            0            0    2.1521704 
 9300000    2012.7308   -42698.676   -2947.3294   -1422.8065   -474.93649   -6944.2453   -2434.2071    6127.4072   -8665.0265    18.870703    18.870703    18.870703            0            0            0    2.2270012 
 9400000    1993.7817   -42899.556   -6111.9694   -3585.1445   -2364.6221   -12386.142   -10988.489    6917.1024    2713.8749    18.992703    18.992703    18.992703            0            0            0    2.1843607 
 9500000    2059.8084   -42995.918    2601.4403   -3581.8844    2334.0171    9052.1883   -9977.2978    186.50065    68.359121    18.899044    18.899044    18.899044            0            0            0    2.2169973 
 9600000    2074.2285   -42946.499    2799.3499   -10781.644    15548.248    3631.4457   -1521.0811    8550.6475    650.47347    19.169447    19.169447    19.169447            0            0            0    2.1244962 
 9700000    2074.2625    -43063.27    14628.344    20896.595    18775.265    4213.1736    -6487.584   -1285.7925    10752.137     18.99322     18.99322     18.99322            0            0            0    2.1841822 
 9800000    2126.6979   -42887.172    2027.8018    5678.1266   -3961.3126    4366.5913    3892.4028    12877.483   -3825.3755    18.933708    18.933708    18.933708            0            0            0    2.2048431 
 9900000    1936.6224   -42951.344   -1165.9931   -2884.0374   -2408.0693    1794.1272    1535.3889    2158.2386   -1249.0215    18.872013    18.872013    18.872013            0            0            0    2.2265375 
10000000    1997.1118   -43139.927    325.78452   -4317.9595   -8628.4644    13923.777    3150.0221    4263.3152    6805.7773    19.102909    19.102909    19.102909            0            0            0    2.1467734 
10100000    2078.2399   -43210.735    203.46484   -2729.3449   -8342.7403     11682.48    2066.6177   -2644.8243     10326.19    18.893875    18.893875    18.893875            0            0            0    2.2188174 
10200000    2013.9769   -42962.029   -7258.2662    -6087.112   -18530.521    2842.8344    3731.9073    7372.7764    4286.5931    19.073455    19.073455    19.073455            0            0            0    2.1567341 
10300000    1945.8437   -43106.197    1805.2688      7726.57     290.9549   -2601.7184   -6698.1572    361.73992   -1748.8331     18.99694     18.99694     18.99694            0            0            0    2.1828995 
10400000    1872.2763   -43305.762    1979.4125   -7454.8673    -3935.904    17329.009   -107.84135   -2444.6118   -3120.1952    19.093636    19.093636    19.093636            0            0            0    2.1499026 
10500000    1917.2148   -43333.392    1592.6717    16549.224   -6487.3741   -5283.8346   -950.63682    5518.0657    4919.8171    18.840105    18.840105    18.840105            0            0            0    2.2378694 
10600000    1832.3852   -42993.192    2422.4934    4600.9146   -819.71417    3486.2796   -2938.7366    8247.6363   -3668.1367      19.1397      19.1397      19.1397            0            0            0    2.1344171 
10700000    1838.4419   -43061.516     1623.053    7878.5923   -1565.7617   -1443.6717    4383.0632   -4212.7356    3263.4155    18.934327    18.934327    18.934327            0            0            0    2.2046268 
10800000    1840.0089   -43240.077   -4825.8604   -172.61463     -5581.42   -8723.5466   -2460.4739   -1551.2814   -8903.5646    19.009849    19.009849    19.009849            0            0            0    2.1784555 
10900000     1816.996   -43085.148   -10888.274    -11485.28   -14525.731   -6653.8121   -5221.1998   -5972.6328   -5562.2265    18.997402    18.997402    18.997402            0            0            0    2.1827403 
11000000    1928.6917   -43382.244   -10522.764   -17341.093   -9365.7208   -4861.4785   -721.06513   -3760.7514   -5952.8257    18.747678    18.747678    18.747678            0            0            0    2.2711315 
11100000    2064.8234   -43405.592   -454.52432   -1877.2191    -8328.907    8842.5531   -1476.7392   -6488.3794    -5301.081    19.148962    19.148962    19.148962            0            0            0    2.1313215 
11200000     1874.932   -43269.728    53.264361   -7219.9947    8222.4361   -842.64829   -3687.1009    -5315.273    6985.7683    18.950215    18.950215    18.950215            0            0            0    2.1990865 
11300000    1817.2885   -43374.152   -11787.795   -8781.8236   -17648.675   -8932.8854    5935.3665   -2386.7299   -5245.0746    18.963801    18.963801    18.963801            0            0            0    2.1943632 
11400000     1953.098   -43602.438    4733.4633   -780.56448    19270.273    -4289.319   -376.80467    1922.5344   -1637.2123    18.800466    18.800466    18.800466            0            0            0    2.2520541 
11500000    1709.6091   -43365.523    5728.5302   -618.46833    9108.8967    8695.1621    1273.5008   -2462.7621    726.62752     18.89376     18.89376     18.89376            0            0            0     2.218858 
11600000    1917.4254   -43233.052    2709.2158   -1005.8394    1860.6595    7272.8275    834.42164   -6016.5877    6238.2035    18.980814    18.980814    18.980814            0            0            0    2.1884682 
11700000     1800.917   -43204.242    2046.1289    8189.8678    8233.5927   -10285.074   -895.63719   -3559.8385    5543.4857    18.976871    18.976871    18.976871            0            0            0    2.1898324 
11800000     1852.199   -43459.321   -832.50176   -10450.825     5721.629    2231.6905   -2792.0739    670.29451    4174.1534    18.951081    18.951081    18.951081            0            0            0    2.1987849 
11900000    1793.9578   -43383.321    -2796.202    1005.8659   -1448.6396   -7945.8321   -10498.711    5624.5336    540.39191    19.025359    19.025359    19.025359            0            0            0     2.173132 
12000000    1984.7633   -43533.022    4666.0427    6711.3198    2868.1083    4418.6999   -5557.8764   -4693.9002    -592.9906    19.065124    19.065124    19.065124            0            0            0    2.1595625 
12100000    1801.6249   -43509.101   -2132.8063   -7622.0878    1573.1442   -349.47521   -16.469205   -4833.9276    1028.9154    19.068312    19.068312    19.068312            0            0            0    2.1584796 
12200000    1800.1491    -43504.03    6520.9906    12331.246    6095.7312     1135.994     -6139.12   -3462.0806    323.81601     19.14119     19.14119     19.14119            0            0            0     2.133919 
12300000    1678.4608    -43610.43   -5035.8294   -5340.9059   -5731.2156   -4035.3668    7248.8863   -10891.238   -1731.0335    19.190011    19.190011    19.190011            0            0            0    2.1176737 
12400000    1825.5746   -43601.291    1682.5736     4726.215   -1737.5485    2059.0543   -3870.5722   -5592.1445    3707.6886    19.136534    19.136534    19.136534            0            0            0    2.1354768 
12500000    1666.2596   -43533.099    8896.7819    3408.7243     6900.114    16381.507    18.160845     7129.777    4256.2699    18.810589    18.810589    18.810589            0            0            0    2.2484203 
12600000     1717.264   -43767.376    3421.5728   -1387.4137    3141.5768    8510.5553    812.66624    3107.6013   -1874.1222    18.963154    18.963154    18.963154            0            0            0    2.1945878 
12700000    1593.9691   -43847.586   -2574.0567   -11457.643    6675.9042   -2940.4313     3909.857   -2388.7314    2891.9204    18.948248    18.948248    18.948248            0            0            0    2.1997712 
12800000    1820.6547   -43833.101     -4667.58   -6253.7934   -954.45644   -6794.4901    4143.4638    2314.8225    3120.3145    18.829986    18.829986    18.829986            0            0            0    2.2414791 
12900000    1765.3487    -43578.23   -160.31112   -5052.1584    2251.1503    2320.0747   -1969.0818    418.04916    10519.181    18.927736    18.927736    18.927736            0            0            0    2.2069306 
13000000    1708.0026   -43779.581    3130.0841    15309.513    2488.5972   -8407.8584   -8498.3092   -8405.8783    3713.2746    18.946391    18.946391    18.946391            0            0            0     2.200418 
13100000    1650.0532   -43749.155   -5208.9144   -8950.2426   -2986.5461   -3689.9544   -101.58613   -526.07234   -9266.0831     19.05663     19.05663     19.05663            0            0            0    2.1624515 
13200000    1737.1828   -43833.105    7391.4836   -1363.0786    12884.928    10652.601    3387.8319   -1448.0697    2607.5843    18.921768    18.921768    18.921768            0            0            0    2.2090195 
13300000    1704.0862   -43763.477    -6721.388   -8037.1377    -12812.11    685.08318   -8361.4672   -6340.7481   -819.19692    18.826771    18.826771    18.826771            0            0            0    2.2426278 
13400000    1689.7086   -43879.511    2744.9267    3248.9458    2321.3254    2664.5089   -3791.0789   -620.78949    -8192.045    18.793173    18.793173    18.793173            0            0            0     2.254677 
13500000    1680.0022     -43747.9   -602.57316    1605.4174   -6295.8911    2882.7542     1611.634   -497.30545   -401.71727    18.723144    18.723144    18.723144            0            0            0    2.2800709 
13600000    1671.5807   -44069.914    3267.7662    7975.2053   -1514.3089    3342.4021     5929.023   -4563.5612    3021.5268    18.754273    18.754273    18.754273            0            0            0    2.2687363 
13700000     1701.127   -43914.681    9484.1064    4727.8507    14773.896     8950.572   -3328.6695    1778.6544   -10085.798    18.693171    18.693171    18.693171            0            0            0    2.2910563 
13800000    1574.7266    -44056.86   -14712.419   -24978.274   -5277.5057   -13881.476    4287.9639    8540.3708    10386.264    18.824948    18.824948    18.824948            0            0            0    2.2432791 
13900000    1727.5021   -44059.971    605.64438     428.5421   -3470.8181    4859.2092   -7431.1635    6802.4593   -4200.7994      18.7479      18.7479      18.7479            0            0            0    2.2710507 
14000000    1591.8639   -44016.975   -10382.324   -19846.989   -2955.9658   -8344.0157    1851.2292    3488.5913    3276.8031     18.82411     18.82411     18.82411            0            0            0     2.243579 
14100000    1623.1187     -43984.2   -8800.5966   -10352.377   -3145.5822    -12903.83   -2169.3498    3219.9328   -725.83126    19.006982    19.006982    19.006982            0            0            0    2.1794415 
14200000    1641.3037   -44197.311   -9763.3845   -16968.062   -5593.1426   -6728.9484   -7120.1636    851.58556   -4513.6665    18.966514    18.966514    18.966514            0            0            0    2.1934217 
14300000    1505.0723   -43999.477   -3704.7778   -10327.123   -373.27626   -413.93465    10831.237    -6442.642    4102.1776    18.841407    18.841407    18.841407            0            0            0    2.2374055 
14400000    1668.0033   -44090.786   -1784.3034   -2757.3548   -3919.0869    1323.5316    4603.4483    328.63563    1992.9136     18.92094     18.92094     18.92094            0            0            0    2.2093096 
14500000    1539.5391   -44242.902   -4124.3707   -5892.2142    -219.1497   -6261.7483   -9234.0046   -8067.0282    4261.7935    18.911325    18.911325    18.911325            0            0            0    2.2126812 
14600000     1634.142   -44136.481   -14126.058   -13561.366   -16984.433   -11832.376    4143.1024   -3630.7058   -6432.5196    18.905659    18.905659    18.905659            0            0            0    2.2146711 
14700000    1565.3275   -44226.118   -1587.7683    1475.7852   -6628.9035    389.81346    5471.7635   -56.441138    1541.1746    18.836824    18.836824    18.836824            0            0            0    2.2390389 
14800000    1495.6355   -44190.897    1651.0036    4919.2041   -2927.8927    2961.6993    5566.1478   -7000.0226    8952.7018    18.926755    18.926755    18.926755            0            0            0    2.2072739 
14900000      1527.22   -44253.876    4307.9449     30.10563   -1033.5272    13927.256    138.89112   -2727.5723   -5231.0083    18.888022    18.888022    18.888022            0            0            0    2.2208808 
15000000    1419.8802   -44151.453    2340.9604   -1946.0147    3919.4059      5049.49     927.2086   -5657.7082   -4252.9012     18.94814     18.94814     18.94814            0            0            0    2.1998088 
15100000    1461.9258   -44062.108   -2779.4825    4287.0272   -13396.842    771.36761     1831.172    -7545.368    5618.6202    18.963794    18.963794    18.963794            0            0            0    2.1943657 
15200000    1578.4687   -44302.578     2872.463    1355.2626    3549.4702    3712.6562    4495.4799    -5889.482   -10185.676    18.934947    18.934947    18.934947            0            0            0    2.2044103 
15300000    1472.5036   -44281.728    4818.2196    10377.512   -8176.6577    12253.804    4881.4946   -4604.0112    5498.9478    18.905676    18.905676    18.905676            0            0            0    2.2146651 
15400000    1622.8025   -44349.035    5032.4985    12122.433   -2206.7326    5181.7948    1943.4552   -12667.644   -6868.3007     18.94765     18.94765     18.94765            0            0            0    2.1999796 
15500000    1543.8713   -44367.591    8317.4912    12672.028    11303.576    976.87023    558.61335    1703.8751   -1765.2134    18.828207    18.828207    18.828207            0            0            0    2.2421146 
15600000    1437.8279   -44426.146   -7699.5182   -3864.9058   -15080.225   -4153.4238    7174.8916   -2051.4896   -4552.4376    18.865671    18.865671    18.865671            0            0            0    2.2287836 
15700000     1441.672   -44513.618    4949.8511    1898.9814    4268.6488     8681.923   -8039.5748   -7309.7471    373.70187    18.835372    18.835372    18.835372            0            0            0     2.239557 
15800000     1388.948   -44552.713    -6687.576   -1197.3176   -15917.626   -2947.7841    8500.5814   -118.17377   -5788.8242    18.877197    18.877197    18.877197            0            0            0    2.2247036 
15900000    1501.4664   -44554.124      7393.06    14562.668   -694.25855    8310.7703   -3480.5228   -12334.636   -6319.3554    18.874917    18.874917    18.874917            0            0            0    2.2255099 
16000000    1381.0514   -44554.073    -4241.539   -4144.0039   -7484.2564   -1096.3568   -556.10369    -910.5809    3967.8759     18.88969     18.88969     18.88969            0            0            0    2.2202926 
16100000    1340.3494    -44687.75    316.10004    3095.2869    928.70313   -3075.6899    4383.0308   -7985.8117    -1105.437    18.863195    18.863195    18.863195            0            0            0    2.2296616 
16200000    1334.2397   -44427.509    1429.9479    5863.3918   -1719.4838    145.93574     3626.108   -6355.8368   -4736.7505    18.861112    18.861112    18.861112            0            0            0    2.2304005 
16300000    1452.4155   -44556.459   -5146.8853    7286.3014    -6742.332   -15984.625    111.97481     -6281.56    682.58553    18.911816    18.911816    18.911816            0            0            0    2.2125089 
16400000    1409.0929   -44438.997    1874.7709    3218.7346    -5793.007     8198.585    -1991.962   -7390.6905   -7263.3673    18.875327    18.875327    18.875327            0            0            0    2.2253648 
16500000     1352.009   -44480.623    5521.5639     9724.483    3904.7767     2935.432    5268.8663   -11789.876    3109.5435    18.751068    18.751068    18.751068            0            0            0    2.2698998 
16600000    1307.3862   -44571.828    3268.6717    2922.0343    608.14528    6275.8357   -1902.8646    -2152.075   -69.270161    18.829702    18.829702    18.829702            0            0            0    2.2415807 
16700000    1237.6721   -44516.119   -585.42976    6182.8438   -2330.5553   -5608.5778    7733.5212    4849.3789    -9669.916    18.906221    18.906221    18.906221            0            0            0    2.2144735 
16800000    1286.3773   -44587.492    5703.8247    13378.402   -6074.7606    9807.8324    -774.9655    -1365.151   -1825.0847    18.775232    18.775232    18.775232            0            0            0    2.2611469 
16900000    1233.1951   -44688.754   -14109.788   -8672.4261   -15917.152   -17739.785   -1295.2741   -7555.0298   -6406.2865    18.914075    18.914075    18.914075            0            0            0    2.2117161 
17000000    1309.2537   -44637.845   -2634.7788    2231.9658   -5938.7913   -4197.5108   -111.50013   -6847.2005    -1770.023    18.871404    18.871404    18.871404            0            0            0     2.226753 
17100000    1288.2673   -44663.616    3587.4419    10715.352    2268.0936   -2221.1195    3009.6475   -503.91287   -3163.5415    18.831403    18.831403    18.831403            0            0            0    2.2409732 
17200000    1252.9518   -44697.804   -4380.3163   -2278.8123   -7596.8444   -3265.2923    2483.8196   -6709.0051   -8305.1457    18.898086    18.898086    18.898086            0            0            0    2.2173346 
17300000    1298.2739   -44737.143    6375.0941    12313.688    863.15124    5948.4428   -6245.6207   -4299.6296   -5357.4431    18.895771    18.895771    18.895771            0            0            0    2.2181498 
17400000    1318.5388   -44787.786    1218.0247    3558.7469    2070.3799   -1975.0527    2709.6155   -9457.9633   -3872.8723    18.896076    18.896076    18.896076            0            0            0    2.2180421 
17500000     1246.897   -44589.042   -130.79773    11899.117   -8539.8887   -3751.6218    5917.9382   -9492.6674   -3807.6182    18.851949    18.851949    18.851949            0            0            0    2.2336542 
17600000    1225.4409   -44757.756   -5910.6034   -1342.6425   -6849.6367   -9539.5311    426.77663   -3010.3764    2654.6226    18.946586    18.946586    18.946586            0            0            0    2.2003502 
17700000     1233.845   -44720.117    2280.8525    5565.2881    -2478.906    3756.1753   -3916.0234   -3525.7721   -3956.6521    18.847115    18.847115    18.847115            0            0            0    2.2353733 
17800000    1204.0788   -44786.179   -3206.5908     711.8007   -1315.9394   -9015.6338    9440.2297   -5299.0231    -3586.042    18.865165    18.865165    18.865165            0            0            0    2.2289629 
17900000     1163.748   -44695.508   -2032.6242    13755.919   -18140.973   -1712.8181     1716.819    5488.9296   -3670.9249     18.82963     18.82963     18.82963            0            0            0    2.2416063 
18000000     1203.857   -44611.667    3527.6651    11796.101    1558.5353   -2771.6406    3015.2116   -3138.5529   -6462.2408    18.795569    18.795569    18.795569            0            0            0    2.2538149 
18100000    1109.3498   -44776.013   -2712.1575   -404.75161   -7295.6742   -436.04684    744.21413   -3713.1869   -4965.1285    18.809959    18.809959    18.809959            0            0            0    2.2486462 
18200000    1071.6777   -44726.408    7373.6039    13970.423    12370.638   -4220.2488    580.85224   -5992.4377   -1866.3994    18.844363    18.844363    18.844363            0            0            0     2.236353 
18300000    1168.4632   -44757.139   -6023.2314    899.55053   -8804.8257   -10164.419   -947.79942   -5831.3626   -7904.2096     18.92496     18.92496     18.92496            0            0            0     2.207902 
18400000     1130.778   -44893.849   -3957.1273   -400.27305   -7591.6569   -3879.4519   -1350.5281   -1083.9775   -387.26032    18.853006    18.853006    18.853006            0            0            0    2.2332785 
18500000    1184.6369   -44884.001    2149.0876    5850.3571    2952.1798   -2355.2741     1618.346    5468.0242    552.40621    18.801289    18.801289    18.801289            0            0            0    2.2517586 
18600000      1146.64   -44923.326   -2090.3655    6026.8173    1286.2574   -13584.171   -1980.0407   -9513.2807   -247.20441    18.917346    18.917346    18.917346            0            0            0    2.2105692 
18700000    1175.0452   -44873.743    1414.7905    8349.0988   -5428.3805    1323.6533    4673.0031    769.43646   -4061.6248    18.843126    18.843126    18.843126            0            0            0    2.2367932 
18800000    1098.6556   -44920.913     2597.868    8133.2286   -1283.1693    943.54479    9550.9393   -9570.7773    4890.7197     18.88351     18.88351     18.88351            0            0            0    2.2224733 
18900000    1162.2726   -44888.604     2696.067    6794.1065    -2353.681    3647.7755     2597.115    -3905.021    1007.0314    18.834142    18.834142    18.834142            0            0            0    2.2399956 
19000000    1084.9075   -45006.966    5522.6222    9790.3018    -1742.117    8519.6819    1690.0509   -5327.8941   -10309.556    18.839859    18.839859    18.839859            0            0            0    2.2379572 
19100000    1022.1666   -44965.424    3467.6562    6117.5145    -3483.806    7769.2602    3553.6687   -6911.0106   -7476.1325    18.880541    18.880541    18.880541            0            0            0    2.2235217 
19200000    1092.4152   -45021.466   -1123.9975     10056.87    -8702.347    -4726.515   -241.57814   -3102.3617   -2195.3173    18.897374    18.897374    18.897374            0            0            0    2.2175853 
19300000    1059.6843   -45042.064    2467.2478     12214.45   -209.08994   -4603.6165   -134.78972   -3302.4674   -4339.3469    18.796092    18.796092    18.796092            0            0            0    2.2536269 
19400000    1139.1279   -45027.614    992.57695    2887.5726     1914.752   -1824.5938    450.67169   -6080.4082   -7118.9645    18.861764    18.861764    18.861764            0            0            0    2.2301689 
19500000    1067.5709   -44997.268   -7045.6603   -856.37785   -12457.613   -7822.9898   -440.00712   -5092.2627   -12051.489     18.90074     18.90074     18.90074            0            0            0    2.2164008 
19600000    1007.6408   -45014.617    3581.5564    6888.5513    5042.9959   -1186.8781    80.699058    245.63465   -1581.3418    18.821564    18.821564    18.821564            0            0            0    2.2444896 
19700000    959.72432   -45176.591   -4630.6551    5072.9881   -7753.2856   -11211.668    1165.7211   -2642.6351   -3479.8716    18.875552    18.875552    18.875552            0            0            0    2.2252853 
19800000     1089.886   -45112.442   -920.40572    6812.8736   -3690.9086   -5883.1823   -2136.9372   -3622.1209   -5224.1798    18.875249    18.875249    18.875249            0            0            0    2.2253925 
19900000    986.45194   -45071.528    -716.7864    9324.6428   -1280.1315    -10194.87    2834.0522    -581.6222   -756.54552    18.827007    18.827007    18.827007            0            0            0    2.2425432 
20000000    982.34887   -45128.786    9530.7968    12103.572    14182.655    2306.1631    872.52554   -5430.0184   -7035.5647    18.799663    18.799663    18.799663            0            0            0    2.2523428 
20100000    1000.2021   -45088.926    6080.9514    19676.275   -2892.2348    1458.8139    6650.0762    -1168.909   -2994.8893    18.796961    18.796961    18.796961            0            0            0    2.2533143 
20200000    877.83356   -45085.565    3896.7898    8976.3492    6269.5996   -3555.5794     2846.726    133.00154   -2238.3408    18.786536    18.786536    18.786536            0            0            0    2.2570676 
20300000    957.37737    -45182.43    2743.9315    7199.1071    3319.5094    -2286.822   -266.39744    -3765.434    1199.6712    18.826906    18.826906    18.826906            0            0            0    2.2425793 
20400000    987.46946   -45139.013    5631.9106    11655.831    7028.0286   -1788.1274    5937.8382    -10588.51   -11534.392    18.835051    18.835051    18.835051            0            0            0    2.2396715 
20500000     960.1539   -45204.661    -10883.97    3529.0809   -19933.022   -16247.968    4457.2607   -3868.1121   -3798.3028    18.830026    18.830026    18.830026            0            0            0    2.2414649 
20600000    931.45833   -45178.256   -2323.5263    8272.1191   -7523.0682   -7719.6297    3636.6007   -1678.1945    2044.2548    18.869403    18.869403    18.869403            0            0            0    2.2274617 
20700000    980.98058   -45236.675   -423.91766     2259.759    907.42893    -4438.941    1599.3441   -4696.0473   -2890.5964    18.896809    18.896809    18.896809            0            0            0    2.2177842 
20800000    912.72863   -45169.159   -6799.1917   -6242.1416    -8581.357   -5574.0767    5491.9793   -9191.8206   -3852.5869    18.846229    18.846229    18.846229            0            0            0    2.2356886 
20900000    938.72991   -45163.937   -657.54204    5764.7317   -3323.2606   -4414.0973    2121.3382   -7038.8291    255.65759    18.844468    18.844468    18.844468            0            0            0    2.2363154 
21000000    920.66148   -45299.288   -10077.521   -6854.4609   -10526.083    -12852.02    388.17614   -4703.6802    -7712.978    18.878725    18.878725    18.878725            0            0            0    2.2241636 
21100000    877.50753   -45232.597   -8405.9343   -3067.4256   -12725.007   -9425.3699    1673.9449   -5221.0467   -1244.6477    18.909935    18.909935    18.909935            0            0            0     2.213169 
21200000    870.35111   -45299.763    1963.5828    7128.5766    455.49466   -1693.3227    5571.7536   -3538.3561   -1276.9509    18.837494    18.837494    18.837494            0            0            0    2.2388002 
21300000    842.00853   -45197.925   -9477.0138   -7908.2695   -7830.1817    -12692.59      48.4936   -5137.2892   -3683.2845    18.866134    18.866134    18.866134            0            0            0    2.2286196 
21400000     851.2749    -45300.31   -307.62816    5465.8544   -2078.3163   -4310.4227    2655.7701   -2936.0601   -7508.6967    18.824411    18.824411    18.824411            0            0            0    2.2434714 
21500000    824.33811   -45360.913   -6585.6187    4787.3789   -9119.2593   -15424.976   -277.64941   -3047.5917    -2482.792    18.874896    18.874896    18.874896            0            0            0    2.2255174 
21600000    842.76861   -45416.934     5837.741    16504.032    231.86247    777.32857    2377.0093   -3650.9721      291.034    18.817102    18.817102    18.817102            0            0            0    2.2460867 
21700000    856.01984   -45366.874   -2542.8143   -2788.8081    -4686.937   -152.69782    6677.1684   -8006.9701   -5500.6067    18.854196    18.854196    18.854196            0            0            0    2.2328557 
21800000    830.21254   -45282.504   -5174.4502   -2529.7651   -3394.2872   -9599.2983    5484.4338   -1459.8474   -4806.0382     18.85757     18.85757     18.85757            0            0            0    2.2316573 
21900000    782.24514   -45358.881   -2745.3974   -168.69331   -8944.3601    876.86113    977.79619   -8807.1757    -1832.909    18.894323    18.894323    18.894323            0            0            0    2.2186597 
22000000    895.34875   -45360.578    10892.394    14062.617    11513.137    7101.4287   -404.49419   -3467.1284   -7318.3898    18.800605    18.800605    18.800605            0            0            0    2.2520043 
22100000    789.85273   -45439.179   -2334.0347    5096.5216   -5908.7416    -6189.884   -244.05775   -810.43586    169.85012    18.831651    18.831651    18.831651            0            0            0    2.2408847 
22200000    792.67058   -45352.275    -6585.532   -5577.6498   -3521.5425   -10657.404    2888.6261   -4466.4327   -7129.8261    18.799421    18.799421    18.799421            0            0            0    2.2524299 
22300000    773.29963   -45466.954    3744.1538    9861.6978    1190.3058    180.45789    3075.3368   -4059.8368    3227.7606    18.769907    18.769907    18.769907            0            0            0    2.2630717 
22400000     775.7773   -45420.694   -1595.7782    4986.7272    -2562.933   -7211.1287    1428.5172   -6344.9695   -2414.3804    18.871758    18.871758    18.871758            0            0            0    2.2266278 
22500000    777.24062   -45433.011    520.76837    8053.1209   -4487.1394   -2003.6764    1155.6616   -2613.2596   -7897.5806    18.873552    18.873552    18.873552            0            0            0    2.2259929 
22600000    778.27661   -45514.906    -4857.479   -584.98756   -1753.2177   -12234.232      6789.98   -10622.238   -1397.1287    18.868749    18.868749    18.868749            0            0            0    2.2276933 
22700000    752.30234   -45420.525    -10306.43   -96.412955    -13652.28   -17170.599    1280.0116    -7243.543   -3565.4849    18.866858    18.866858    18.866858            0            0            0    2.2283632 
22800000    804.14447   -45554.021   -3295.7743    2280.3479   -7222.4773   -4945.1935   -1551.3823   -5823.6421   -5702.6864    18.832565    18.832565    18.832565            0            0            0    2.2405584 
22900000    678.26371   -45556.993    4391.1599    11111.125    2945.2746   -882.92019   -1761.6775   -3969.9456   -3020.4222    18.836664    18.836664    18.836664            0            0            0    2.2390962 
23000000    667.76224   -45590.495    10430.027    17159.217     3434.669    10696.195    412.30837   -9834.8463   -4099.4583    18.805305    18.805305    18.805305            0            0            0    2.2503163 
23100000    684.91055   -45513.568    4987.1829    8905.6137    1882.3626    4173.5724    926.93411   -3711.8812   -5132.8878    18.799602    18.799602    18.799602            0            0            0    2.2523647 
23200000    669.77308   -45519.374   -3000.6616   -1267.1186   -2299.1723    -5435.694    3475.8666   -6347.1365   -11437.129    18.803556    18.803556    18.803556            0            0            0    2.2509441 
23300000    652.07779    -45541.94    5360.6535    12530.267    1854.0301    1697.6638    4755.1915   -5112.8166   -4611.5491    18.859756    18.859756    18.859756            0            0            0    2.2308815 
23400000    627.11547   -45634.281   -7847.6305   -3873.0017   -14121.878    -5548.012   -1013.0957   -3045.3245   -1928.6884     18.82364     18.82364     18.82364            0            0            0     2.243747 
23500000    650.77995   -45621.764   -10349.641   -712.94998   -11801.968   -18534.004    731.76119     -5415.52   -3301.5676    18.872612    18.872612    18.872612            0            0            0    2.2263254 
23600000    670.50663    -45625.91    4562.9009    9372.4281    2601.4725     1714.802    6552.4166   -4416.7893   -4508.7888    18.802435    18.802435    18.802435            0            0            0    2.2513468 
23700000    612.53864   -45648.758    11046.298     15577.78    4553.7879    13007.326    -1389.891   -2071.2777   -6057.8325    18.786016    18.786016    18.786016            0            0            0    2.2572549 
23800000    623.17896   -45662.826    6818.9731    13596.704    5238.8327    1621.3827   -5250.0689   -7599.4013   -7817.1937    18.850814    18.850814    18.850814            0            0            0    2.2340575 
23900000    601.62993   -45631.416   -352.62095    2659.3713    -7495.281    3778.0468    1362.5223   -91.037158   -2892.2844    18.836276    18.836276    18.836276            0            0            0    2.2392346 
24000000    593.68781   -45666.423    -2170.455    5622.1587   -4370.8801   -7762.6435    3857.5195   -4320.1263   -5422.6563    18.832551    18.832551    18.832551            0            0            0    2.2405634 
24100000    595.07788   -45664.026     12.84111     2293.297    -3289.604    1034.8303   -379.88066   -4410.8559   -6270.0889    18.879813    18.879813    18.879813            0            0            0     2.223779 
24200000    584.57425   -45663.342   -1538.8658   -1960.9401   -507.26608   -2148.3911    2813.5697   -7879.2731    -8072.416     18.82676     18.82676     18.82676            0            0            0    2.2426317 
24300000    579.98837   -45720.016     6951.412    14919.455    1265.9964    4668.7849    1289.2494   -4994.9695   -639.79236    18.799171    18.799171    18.799171            0            0            0    2.2525198 
24400000    566.64985   -45717.365    8299.4879    14648.798    8734.3199    1515.3459    -584.9488   -3349.6916    110.05908    18.820964    18.820964    18.820964            0            0            0    2.2447042 
24500000    536.71167   -45716.861    8838.1232    19491.588    3236.4122    3786.3693    1999.7062   -6406.1273    2548.6233    18.783968    18.783968    18.783968            0            0            0    2.2579935 
24600000     547.5237   -45793.043   -1239.9383     6481.843   -7287.7247   -2913.9331    2305.9449   -6513.0707   -3298.0873    18.841107    18.841107    18.841107            0            0            0    2.2375125 
24700000    535.33039   -45728.881     1675.992    5919.1039    2311.4346   -3202.5626    496.41516   -5912.3661   -187.60614    18.815976    18.815976    18.815976            0            0            0    2.2464896 
24800000    528.71458   -45788.977    -6799.456   -2774.1516   -9802.1652   -7822.0512   -3831.7057   -9467.5274   -2964.5173     18.81943     18.81943     18.81943            0            0            0    2.2452531 
24900000    520.41475   -45781.941    -2305.003    4663.0481   -10015.286   -1562.7709    2461.4904   -4523.2315   -4987.0149    18.860733    18.860733    18.860733            0            0            0    2.2305349 
25000000    478.82684   -45794.486    -5579.568   -3786.8472   -8140.4036   -4811.4531    638.84256   -3787.9578   -5537.8741    18.876175    18.876175    18.876175            0            0            0    2.2250652 
25100000    483.19347   -45766.009    -2806.739    3298.1286   -5211.3651   -6506.9806   -2078.3517   -3544.6501   -9123.0333    18.825728    18.825728    18.825728            0            0            0    2.2430006 
25200000     470.5976   -45806.604   -1907.4814    876.15186   -3865.6301   -2732.9659    5658.4849   -5954.2621   -3395.5913    18.815053    18.815053    18.815053            0            0            0    2.2468202 
25300000    462.71008   -45862.497   -5255.5124    3049.5111   -11327.932   -7488.1157    3176.6051   -1374.4066   -2362.2343    18.875354    18.875354    18.875354            0            0            0    2.2253553 
25400000     446.9487   -45826.548     5100.797    9280.6858    3842.2864    2179.4188    4248.7401   -4784.9756   -2773.2587    18.829105    18.829105    18.829105            0            0            0    2.2417939 
25500000    451.23313   -45830.418    31.267284    4131.7903   -179.15119   -3858.8373    1734.0346   -3623.9538   -4911.9036    18.827237    18.827237    18.827237            0            0            0    2.2424613 
25600000    452.69031   -45905.034   -5713.8044   -5280.1821   -7182.9762    -4678.255    2131.3128   -4284.2201    2362.4072    18.818291    18.818291    18.818291            0            0            0    2.2456609 
25700000    439.71516   -45897.891      4643.18    13417.636   -223.41277    735.31709   -1104.6498   -5704.0476   -6016.7858      18.7753      18.7753      18.7753            0            0            0    2.2611222 
25800000    409.27103   -45933.356     1536.109     4671.341    -982.7858    919.77186   -907.20303   -4038.8642   -4795.8541    18.873769    18.873769    18.873769            0            0            0    2.2259161 
25900000    415.75104   -45951.602   -3147.3812    746.38643   -3427.9377   -6760.5924   -1712.9669   -1168.5101   -3952.8273    18.835092    18.835092    18.835092            0            0            0    2.2396567 
26000000    403.22586   -45942.428   -2920.4603    9401.7467   -9724.0483   -8439.0792   -1535.6491   -782.12563   -5885.8701    18.818378    18.818378    18.818378            0            0            0    2.2456297 
26100000    388.76179       -45920   -1931.6413    5739.0737   -4742.6775     -6791.32    682.77992   -5404.7338    -3319.583    18.851269    18.851269    18.851269            0            0            0    2.2338959 
26200000    402.78528   -45952.124    454.59108    9940.7495   -1770.9918   -6805.9844   -616.63486   -6021.1374   -4532.6635    18.825079    18.825079    18.825079            0            0            0    2.2432326 
26300000    367.02381   -46011.196   -4542.5478   -2490.8073   -6688.1506   -4448.6854   -1118.4468   -3326.1125   -6692.7608    18.849723    18.849723    18.849723            0            0            0    2.2344454 
26400000    359.49307   -45999.048    7524.1653    12978.595    6135.7115    3458.1898    463.54345    -4820.341   -5928.7974    18.823748    18.823748    18.823748            0            0            0    2.2437085 
26500000    329.82224   -46029.287    3915.4715    4570.5102    3940.7635    3235.1407    2265.4423   -4415.9313    -5583.753    18.800205    18.800205    18.800205            0            0            0     2.252148 
26600000    335.42724   -46021.191    -2504.516    1554.7327   -3496.6246   -5571.6562    1354.5408    45.045234   -1081.2645    18.824063    18.824063    18.824063            0            0            0    2.2435957 
26700000    338.41194    -46039.96    2606.1283    7675.9677   -70.580579    212.99783    1266.7714   -3566.2356   -4046.8531     18.82247     18.82247     18.82247            0            0            0    2.2441655 
26800000    332.92593   -46072.474   -2949.2997     838.4201   -6073.9104   -3612.4088    -144.9626   -9577.5776   -2827.1756    18.873948    18.873948    18.873948            0            0            0    2.2258528 
26900000    317.05376   -46068.801    2055.3195    13391.383   -5816.6508   -1408.7738    6289.2903     -2105.74   -838.75228    18.815598    18.815598    18.815598            0            0            0    2.2466253 
27000000    277.77856   -46081.311   -2262.1838    3744.3161   -4536.1885   -5994.6789    1427.9726   -6165.4113   -3623.5161    18.832219    18.832219    18.832219            0            0            0     2.240682 
27100000    275.03494   -46095.011    6260.5487    9670.6839    5705.5233    3405.4389     517.5367   -6443.0243   -2411.7102    18.788051    18.788051    18.788051            0            0            0    2.2565216 
27200000    275.03438   -46113.468   -4282.6624     -1758.58   -4047.0043   -7042.4028    901.53243   -5463.8535   -5229.3651    18.821417    18.821417    18.821417            0            0            0     2.244542 
27300000    277.05637   -46121.729    1857.4988    6551.4687   -3965.5397    2986.5675    1567.8037   -5030.2304   -4346.3154     18.80533     18.80533     18.80533            0            0            0    2.2503073 
27400000    250.25299   -46116.523   -443.89718    859.62559     1127.153   -3318.4702     2797.656   -7212.4775   -4158.1178    18.843407    18.843407    18.843407            0            0            0     2.236693 
27500000    235.35874   -46154.808    4716.3005      9721.64    1756.2244    2671.0372    -1749.073   -4279.1829   -3048.2004    18.819937    18.819937    18.819937            0            0            0    2.2450716 
27600000    250.03007   -46164.013    620.91815    2204.4724   -3454.2181    3112.5002    3569.2972   -3813.4565   -3039.9742    18.806097    18.806097    18.806097            0            0            0    2.2500319 
27700000    225.62544   -46191.246   -3878.0504   -1274.1167   -5389.9314   -4970.1032    2644.8844   -3824.0912   -3867.0549    18.856302    18.856302    18.856302            0            0            0    2.2321075 
27800000    225.95604    -46188.48    2292.1175    6147.6678    726.89751     1.787301    4833.6414   -4895.0042   -2975.1874     18.85316     18.85316     18.85316            0            0            0    2.2332238 
27900000     210.1692   -46199.738    -491.7571    413.11214   -1356.8109   -531.57249    2670.2891   -3219.8072   -4785.8808    18.829294    18.829294    18.829294            0            0            0    2.2417263 
28000000    195.97401   -46209.982    2892.6602    4703.2008    3722.1592    252.62073    1388.3049   -2239.4209   -4381.5724    18.828807    18.828807    18.828807            0            0            0    2.2419004 
28100000    193.87591   -46237.009    3326.0383    8425.6997    897.48985    654.92544    2377.8573   -6914.9751   -4191.9513    18.812256    18.812256    18.812256            0            0            0    2.2478226 
28200000    170.00622   -46237.199    2789.3993    6992.7311   -213.20851    1588.6754    1940.9328   -2706.3739   -2120.0583    18.809873    18.809873    18.809873            0            0            0    2.2486771 
28300000    178.98257    -46270.34    144.34319    5020.4879   -5646.0752    1058.6168    2044.1977   -6729.4906   -3724.6054    18.816489    18.816489    18.816489            0            0            0    2.2463061 
28400000    161.11068   -46295.165     -2987.99    1923.4463   -5227.2181   -5660.1981    1418.8404   -4744.7358   -3750.5092    18.853488    18.853488    18.853488            0            0            0    2.2331073 
28500000    150.30854   -46291.993   -2098.8573    2899.6136   -2552.3948   -6643.7906    1219.0312   -6670.6769   -4734.1166    18.832749    18.832749    18.832749            0            0            0    2.2404928 
28600000    147.32538   -46300.024   -2548.8867    1282.0149   -7119.2716   -1809.4033    991.51344    -6109.302   -6101.1127    18.832085    18.832085    18.832085            0            0            0    2.2407299 
28700000    128.04092   -46310.577    3162.0833    6465.7064    4091.5986   -1071.0551    1079.0741   -4302.8146   -5762.4656     18.79671     18.79671     18.79671            0            0            0    2.2534047 
28800000    125.59126   -46324.189    266.44483    3485.4351   -911.19744   -1774.9031    4251.6376   -6025.2716   -5959.9204    18.812219    18.812219    18.812219            0            0            0     2.247836 
28900000    106.00939   -46347.753   -2307.1436     860.9685   -3550.9131   -4231.4861    961.13197   -3570.8767    -3934.964    18.828101    18.828101    18.828101            0            0            0    2.2421524 
29000000    106.55274   -46352.285   -1982.8822    233.22699   -1786.9806   -4394.8929    1175.7232   -5986.8491   -2941.6946    18.818961    18.818961    18.818961            0            0            0    2.2454208 
29100000    83.336949   -46374.193   -1280.6546    1445.0172    -2831.944   -2455.0372    1875.7148   -5143.9749   -4641.4953    18.815495    18.815495    18.815495            0            0            0    2.2466622 
29200000    81.431225   -46376.035     1140.432    7060.1723   -2052.2333   -1586.6429     4498.079   -5180.3615   -3684.4613    18.807571    18.807571    18.807571            0            0            0     2.249503 
29300000    73.048391   -46392.218    686.44036    5712.8526   -1608.9613   -2044.5701    1565.0489   -6901.0039   -3513.9037    18.807601    18.807601    18.807601            0            0            0    2.2494921 
29400000    59.017182   -46406.683   -599.86959    6049.3025    -4178.899   -3670.0123    3652.0683    -3084.747   -2910.9763    18.821426    18.821426    18.821426            0            0            0    2.2445387 
29500000    48.195097    -46424.67    264.74407    6676.5858   -2189.4943   -3692.8593      3533.58   -5975.4272   -4295.9042    18.820635    18.820635    18.820635            0            0            0    2.2448218 
29600000    42.628972   -46435.354   -113.50515    5133.2572   -3114.7619   -2359.0107    2041.3841   -4000.0919   -4274.1561    18.831289    18.831289    18.831289            0            0            0     2.241014 
29700000    31.052584   -46448.426    892.46963    5001.0835   -3117.4106    793.73598    1857.3117   -4182.9387   -3801.4736    18.821577    18.821577    18.821577            0            0            0    2.2444849 
29800000      21.7576   -46462.974    245.70823    5835.4984   -2508.4301   -2589.9436    1805.3249   -5042.7874   -4399.0638    18.814516    18.814516    18.814516            0            0            0    2.2470128 
29900000     9.926363   -46476.968   -439.72532    3497.8136   -2623.7486    -2193.241    2571.8323   -4734.0699   -4233.7323     18.81911     18.81911     18.81911            0            0            0    2.2453677 
30000000  0.027684287   -46490.803    1.2494464    4720.8987   -2893.0318   -1824.1185    1990.0932   -5028.4094   -4067.1291    18.819405    18.819405    18.819405            0            0            0    2.2452622 
Loop time of 3702.59 on 24 procs for 30000000 steps with 450 atoms

Performance: 700.051 ns/day, 0.034 hours/ns, 8102.442 timesteps/s
99.0% CPU use with 24 MPI tasks x 1 OpenMP threads

MPI task timing breakdown:
Section |  min time  |  avg time  |  max time  |%varavg| %total
---------------------------------------------------------------
Pair    | 657.92     | 826.39     | 1045.4     | 274.3 | 22.32
Neigh   | 41.83      | 47.27      | 52.794     |  35.2 |  1.28
Comm    | 1908.2     | 2119.3     | 2287.2     | 168.5 | 57.24
Output  | 0.072021   | 0.072258   | 0.075436   |   0.2 |  0.00
Modify  | 578.27     | 601.17     | 632.46     |  65.8 | 16.24
Other   |            | 108.4      |            |       |  2.93

Nlocal:        18.7500 ave          26 max          15 min
Histogram: 7 2 1 6 2 3 1 0 1 1
Nghost:        1269.04 ave        1287 max        1251 min
Histogram: 4 1 3 1 2 3 2 3 3 2
Neighs:        2640.75 ave        3951 max        1937 min
Histogram: 3 3 6 2 5 4 0 0 0 1

Total # of neighbors = 63378
Ave neighs/atom = 140.84000
Neighbor list builds = 691580
Dangerous builds = 0
unfix            1

#fix             1 all nve
#fix             2 all temp/rescale 10 1 2000 1 1
#run             1000
#unfix           1
#unfix           2

write_data      end.dat
System init for write_data ...

Total wall time: 1:01:42
