ITEM: TIMESTEP
0
ITEM: NUMBER OF ATOMS
450
ITEM: BOX BOUNDS pp pp pp
-4.2652611239610749e-01 1.9151951262545488e+01
-4.2652611239610749e-01 1.9151951262545488e+01
-4.2652611239610749e-01 1.9151951262545488e+01
ITEM: ATOMS id type x y z
170 2 3.21531 2.54185 3.45592
120 1 2.41706 3.00973 1.71828
272 2 2.00718 4.53427 1.66938
134 1 3.60886 5.33672 1.88069
242 2 0.686939 2.26686 1.51089
234 2 3.13643 1.78436 0.921638
276 2 7.5544 0.962609 4.27414
177 2 4.60685 4.13886 1.94183
247 2 6.96697 3.34702 2.3363
118 1 5.50571 2.48997 1.51405
200 2 5.97557 0.55312 1.72292
28 1 2.07198 0.531271 0.388655
113 1 8.92963 3.87456 2.02054
214 2 5.6271 3.03808 -0.0414715
78 1 3.31272 2.87467 5.15832
379 2 5.71262 1.73738 6.0447
252 2 2.52733 3.21266 6.6283
203 2 3.59137 4.61533 4.68854
95 1 9.10986 -0.154312 7.80063
57 1 6.8302 0.377182 5.69349
403 2 8.72835 0.589133 6.49627
133 1 1.40164 3.69316 7.78108
257 2 4.79461 5.8076 7.0217
268 2 6.22465 0.217858 7.44595
319 2 8.34105 4.03948 5.33803
73 1 8.44591 5.54645 5.89834
260 2 9.1588 5.49936 7.48681
256 2 -0.293173 1.2885 5.99441
303 2 -0.116699 3.65161 7.41093
92 1 3.80276 6.05738 5.69363
17 1 4.87369 -0.178569 8.18626
347 2 6.9651 5.26924 9.10533
438 2 9.11856 0.979293 8.87058
248 2 1.29773 2.23268 8.6004
149 1 8.90315 5.54597 9.16091
213 2 3.1409 0.393011 8.46094
394 2 1.65644 4.72182 9.06389
123 1 5.17786 5.2569 8.93188
230 2 4.849 3.6826 9.2633
218 2 5.13574 1.80565 12.0252
418 2 3.3557 1.99627 10.1132
77 1 5.10486 2.25145 10.464
39 1 5.4563 0.664962 13.1427
94 1 2.47556 4.96258 13.7961
407 2 1.85825 4.73071 12.24
23 1 1.381 5.82831 10.4537
116 1 8.39458 5.45639 13.5748
75 1 8.48161 -0.0718265 13.6973
369 2 6.80508 4.75433 14.1838
397 2 9.34765 4.6469 12.443
209 2 7.13668 0.632641 12.5827
367 2 5.53954 0.801307 9.64436
389 2 0.340443 2.02566 12.9004
69 1 2.11786 1.02405 9.49377
449 2 -0.113319 5.93621 10.6981
305 2 1.00731 0.782851 10.5508
330 2 4.29411 4.7003 14.1814
107 1 0.683514 0.649939 12.1131
395 2 3.64917 3.95271 17.6655
100 1 2.45364 3.20321 16.6793
24 1 4.96559 5.29093 17.8012
168 2 4.23513 1.68306 17.3502
83 1 4.73498 0.489098 16.372
304 2 2.33937 3.72018 14.9985
59 1 0.100267 5.0476 17.143
406 2 1.34771 1.93693 16.9727
159 2 1.46997 6.04688 17.4848
415 2 5.10349 1.25866 14.9147
306 2 -0.31559 4.354 15.0676
15 1 0.10489 2.28306 18.0735
404 2 1.17107 3.81346 17.9443
285 2 6.32346 4.10018 17.4051
355 2 8.64578 0.336362 15.2582
31 1 5.45869 5.36566 15.1614
147 1 8.21285 0.842822 16.8271
311 2 6.93734 1.73065 17.43
295 2 0.741009 0.848118 18.8986
27 1 5.46625 2.80227 17.934
300 2 3.84689 5.99611 16.7272
178 2 9.27181 5.57576 15.1947
341 2 3.07955 6.68493 2.1874
40 1 2.07045 7.968 1.8787
359 2 0.36796 8.32545 2.45292
350 2 3.16133 9.24078 1.69679
68 1 0.888238 12.4409 2.9783
387 2 0.845886 12.1046 1.32384
3 1 3.85548 9.79908 0.322053
250 2 6.52641 7.73583 1.3441
383 2 1.80824 7.4633 0.405929
244 2 5.24486 10.7104 0.402855
154 2 6.99661 8.78807 3.69517
131 1 6.426 11.7187 1.07232
152 2 7.21918 10.4731 1.73081
191 2 8.88958 7.78804 2.51568
136 1 7.50778 8.64725 2.22036
401 2 -0.409527 11.5769 3.30061
335 2 4.07256 6.11627 -0.154296
117 1 1.29016 12.2229 -0.39105
282 2 2.7297 10.9498 -0.330311
253 2 3.21427 10.7071 8.66178
364 2 2.21627 8.90006 6.86668
316 2 2.36169 6.56987 6.60182
328 2 4.57507 7.57113 5.25084
365 2 -0.337426 7.89687 5.71282
216 2 5.17568 10.3564 7.13609
72 1 3.34835 10.1116 7.21139
382 2 0.568873 12.3538 7.53524
357 2 0.335988 7.2947 7.70596
87 1 1.19721 7.84676 6.50745
14 1 3.60904 12.0748 4.8256
157 2 3.70233 10.3295 5.30758
251 2 7.31538 11.983 7.54965
363 2 6.75499 6.65816 5.36367
186 2 6.92679 9.0617 6.45791
10 1 6.18428 8.0723 5.19723
102 1 6.62495 10.2268 7.69623
421 2 9.22963 6.28533 4.87702
346 2 1.00229 11.6947 5.18514
262 2 5.11649 12.4724 4.50316
324 2 6.58103 9.66027 9.15045
184 2 8.04967 6.96816 12.925
288 2 4.83774 11.4069 11.1855
344 2 4.7072 6.53896 9.80594
416 2 2.27604 7.05437 11.1257
386 2 4.72839 8.81556 11.2392
298 2 2.28819 6.54248 13.5175
146 1 0.456196 9.9855 14.1386
105 1 3.90991 7.49068 10.9857
378 2 0.351512 11.0932 13.1324
235 2 5.17897 10.599 13.6691
37 1 5.92491 10.0153 11.3567
436 2 6.96643 9.22384 12.3337
21 1 8.16954 8.56131 12.981
245 2 7.38003 11.9179 11.7165
56 1 8.01797 12.5236 13.1616
280 2 6.0584 6.50867 17.6017
419 2 3.62684 8.5738 18.7518
302 2 6.00433 6.78944 14.9786
66 1 2.46648 6.35312 18.8729
249 2 0.0349996 10.8145 15.4685
231 2 0.971762 9.01683 16.9254
96 1 4.35691 10.7103 15.1529
148 1 5.83355 8.29352 16.8748
114 1 0.0547128 10.2594 17.031
413 2 4.74502 9.08836 15.7408
373 2 0.266586 11.4857 18.229
271 2 7.29736 9.04316 17.345
125 1 8.40503 9.44631 16.3255
212 2 8.06877 8.89637 14.8229
278 2 8.67647 11.0124 16.831
377 2 9.05136 6.10927 17.7972
195 2 3.36177 11.9723 14.9316
180 2 5.52077 11.3981 16.661
160 2 8.08655 12.0901 14.6099
2 1 9.17169 12.3673 15.816
53 1 7.27506 19.0926 2.54259
439 2 8.70803 18.9421 1.59932
182 2 6.55759 18.5163 3.80626
4 1 8.60593 17.7936 0.159421
294 2 6.38223 12.9601 2.32984
396 2 2.64785 12.626 3.38892
161 2 7.51598 14.8531 0.0616946
299 2 2.30336 15.9347 1.89697
85 1 6.35081 13.2831 3.92579
358 2 5.30167 16.2189 0.967618
314 2 0.548315 14.2878 2.86031
399 2 1.70389 16.3314 4.32642
417 2 4.43614 16.968 3.27084
446 2 -0.000503714 16.8512 2.32371
130 1 3.83602 16.3047 1.76631
41 1 1.01357 15.7892 3.00163
143 1 5.73765 16.6087 4.21617
217 2 5.69028 14.8921 3.87185
111 1 9.12949 14.9609 -0.0601703
374 2 2.88224 18.7157 0.640646
54 1 -0.156322 12.6646 6.00615
109 1 8.01812 16.3675 8.90589
127 1 5.36008 16.0083 7.76397
63 1 2.09593 17.6381 5.42732
441 2 4.97956 17.5574 8.43177
360 2 4.99275 16.0365 6.14747
239 2 3.78992 15.1021 7.83369
219 2 3.65707 18.7622 5.28115
291 2 0.590012 18.3701 5.33501
128 1 3.60337 13.6131 7.7952
190 2 2.10245 17.1393 6.86275
265 2 2.95538 12.7879 6.41467
322 2 4.31221 12.9892 9.03846
292 2 0.451582 19.005 8.18571
124 1 1.33296 17.5217 8.38926
447 2 7.46577 12.659 5.01136
43 1 8.09796 13.0154 6.51827
390 2 0.219039 16.1291 8.22395
166 2 7.49884 16.4549 4.78079
356 2 7.94678 14.6885 6.54632
42 1 8.96082 15.6154 5.3159
196 2 6.59793 15.2732 8.74814
269 2 8.65185 17.6172 8.10766
98 1 4.9004 12.8949 10.7514
211 2 -0.040983 16.887 10.9031
315 2 -0.0306212 16.2137 12.9664
323 2 2.34393 16.6297 9.43343
175 2 -0.355262 13.5997 12.7453
151 2 4.56489 18.8827 13.3768
227 2 3.10015 16.5428 11.8479
258 2 1.54401 14.7341 12.2692
393 2 4.8977 14.0448 12.1381
140 1 3.72681 17.34 13.1235
112 1 0.306894 14.7056 13.3913
193 2 7.39402 17.9987 13.6506
201 2 6.72706 13.4993 13.4294
36 1 5.48786 14.6239 13.6775
199 2 7.69898 16.4672 10.7041
361 2 6.2918 15.9969 13.6991
273 2 8.95602 16.0907 13.3562
67 1 7.6911 16.4856 12.4737
172 2 -0.188938 18.9084 12.3254
51 1 1.43206 16.118 11.109
435 2 -0.35578 16.6167 18.8488
345 2 4.76181 14.8153 18.2237
425 2 7.98168 19.032 17.3935
307 2 2.01303 13.7118 18.9242
336 2 6.57079 16.7708 17.8485
450 2 4.08005 14.9463 14.7772
204 2 3.48628 19.1228 16.2658
169 2 3.74883 16.7482 16.6221
422 2 1.40261 13.9643 14.5039
65 1 3.23602 15.3719 17.7766
240 2 2.94982 17.1426 14.4796
208 2 2.85587 13.9679 16.6478
9 1 2.71056 17.8041 16.0066
171 2 1.95114 16.8818 17.66
11 1 3.05412 13.4979 15.1206
48 1 0.176207 17.4573 17.5877
156 2 6.17576 18.8828 15.8097
210 2 8.19965 16.6365 15.8079
326 2 9.0522 14.2318 15.5829
129 1 7.45789 17.9917 16.1571
431 2 0.76546 18.1673 16.1055
115 1 6.02909 15.7979 19.1466
443 2 9.92266 0.0196195 4.23281
238 2 9.50122 2.6672 2.92935
402 2 9.58285 4.35496 0.445222
38 1 14.6923 0.469877 -0.264399
135 1 11.3448 0.322049 0.969176
297 2 13.1925 -0.130983 0.666617
5 1 18.9451 1.94738 2.55431
119 1 16.5146 2.32091 1.26312
409 2 16.3106 5.59412 2.96647
139 1 18.0744 4.79887 3.79847
277 2 15.9042 1.99046 3.14187
165 2 17.8936 1.6703 1.534
432 2 13.3562 3.59662 3.76378
47 1 14.2509 2.08816 3.52905
400 2 13.5079 0.593896 4.13252
354 2 18.752 3.60799 2.86562
308 2 18.9884 0.248459 2.76863
185 2 9.51883 5.25828 2.77467
434 2 16.9888 4.10813 0.144867
192 2 15.0569 1.79934 0.507806
215 2 13.7538 2.93243 6.76591
74 1 12.0136 3.74968 5.99529
339 2 11.0702 2.55093 5.43593
108 1 9.40126 1.62993 4.64654
290 2 11.6971 5.38219 6.08957
414 2 16.6532 2.89639 6.13395
348 2 18.3816 4.33577 5.40033
137 1 18.3994 2.68748 6.23111
84 1 15.4533 2.89429 7.07632
264 2 15.6246 1.35153 7.64163
342 2 17.6695 5.96222 7.61878
34 1 16.2367 -0.325579 8.05309
44 1 19.0732 -0.263353 6.62734
405 2 15.4029 3.67959 8.80794
202 2 9.88317 0.0698252 12.7016
46 1 10.1206 3.7323 10.9847
183 2 10.052 4.28692 9.5928
228 2 12.0136 4.33222 11.3504
79 1 18.7042 3.18318 14.0156
301 2 16.8998 5.09032 10.7009
188 2 18.5951 3.86877 12.339
101 1 18.1703 5.37828 11.5239
97 1 12.0349 3.29002 12.6377
366 2 13.0606 2.63646 13.6566
220 2 10.5788 2.7545 12.059
104 1 11.049 -0.324243 11.7637
229 2 11.5836 0.966213 10.9482
376 2 14.2175 0.434597 13.2365
71 1 15.9115 5.40649 9.41016
52 1 13.3083 5.36444 19.0182
173 2 12.7336 3.60831 16.1863
254 2 11.3667 1.66732 18.0659
430 2 18.1575 2.01596 17.7503
145 1 14.0145 4.12412 15.4357
241 2 14.7592 2.47993 15.809
237 2 13.5889 3.61851 18.6613
16 1 16.9718 0.372171 15.4677
261 2 17.6015 2.24904 14.9522
58 1 12.8519 2.60789 17.4432
362 2 15.3672 5.01096 15.2783
194 2 15.3603 0.122591 14.9479
296 2 18.116 5.64316 17.7241
30 1 16.6732 5.80991 18.7373
144 1 14.1037 1.54962 14.6577
121 1 10.0276 4.86526 18.5216
279 2 11.5225 5.54872 18.81
205 2 10.3072 3.54366 17.3197
329 2 13.0202 4.90497 14.2604
340 2 11.351 0.866868 15.9697
142 1 11.9212 0.336578 17.3556
370 2 13.3464 1.00894 17.8999
428 2 14.0713 5.72868 17.4858
179 2 10.5502 -0.256868 18.9936
232 2 14.5098 9.05723 0.370615
338 2 18.9813 6.43103 3.74172
61 1 18.6664 7.98374 3.46289
164 2 16.3481 11.1366 2.99819
49 1 9.98854 6.63413 3.36185
380 2 11.5659 6.93987 2.58474
321 2 13.4519 6.94843 0.117134
132 1 15.8968 7.00894 3.83805
86 1 12.7592 7.96774 3.3783
22 1 17.4226 10.6462 4.35394
332 2 16.8496 7.96666 2.73402
440 2 14.4056 7.2695 3.19052
197 2 13.2437 9.8104 3.05835
1 1 14.5239 10.9914 3.37311
198 2 16.3541 7.23381 -0.201324
226 2 11.6602 11.1249 7.02811
448 2 17.9159 9.16895 4.49134
327 2 11.293 7.67858 7.68065
313 2 15.8708 6.95075 5.55918
91 1 11.9968 6.98524 6.17552
284 2 17.1555 8.46068 7.05648
6 1 18.1188 7.29898 6.74471
221 2 11.8882 7.91501 4.82763
150 1 15.1567 7.63715 7.02871
333 2 17.8198 11.7706 5.70192
155 2 13.6218 6.841 6.45176
442 2 13.848 10.8059 5.38587
427 2 14.4676 9.21718 7.04816
349 2 17.5496 11.8514 8.44308
19 1 13.5347 10.5206 6.99889
437 2 14.1915 11.9182 7.8822
223 2 15.2502 6.75534 8.63059
93 1 10.586 8.10573 8.97098
320 2 9.46702 7.21019 9.41205
412 2 19.0849 12.2839 10.3406
286 2 18.9546 8.85795 13.6945
263 2 9.85353 9.02643 12.4153
411 2 11.2142 9.20398 10.0369
106 1 11.3743 9.65129 11.6842
233 2 12.3125 7.00205 13.0345
445 2 12.7294 9.58894 12.4802
70 1 18.7856 12.1008 12.1571
167 2 15.09 11.1461 11.6686
246 2 14.8661 12.4686 13.2459
81 1 17.1912 7.91568 13.4569
289 2 17.5854 6.66185 12.4446
266 2 16.1195 8.76883 12.3748
26 1 16.3987 10.0435 11.4197
158 2 17.558 11.3153 11.8302
60 1 14.4295 12.5737 11.5833
243 2 12.3339 12.2991 11.1985
408 2 16.7224 8.99963 10.1069
141 1 9.79596 6.62918 16.2008
444 2 9.43302 8.08977 16.5768
423 2 11.4852 6.55667 15.6364
353 2 10.7317 12.2073 15.5895
32 1 12.8708 6.555 14.5091
207 2 15.9841 8.55997 17.1547
287 2 16.6938 7.39971 14.8873
429 2 14.2835 7.40511 15.1822
25 1 15.5324 8.08643 15.7614
318 2 15.2671 9.86086 15.1691
126 1 15.1411 11.3973 14.5174
189 2 13.9137 12.0725 15.3186
110 1 15.6381 8.58125 18.7807
174 2 16.5488 12.3094 14.9644
255 2 17.4821 17.7713 0.94719
236 2 11.8974 18.4383 2.24995
372 2 9.50479 16.3397 0.3611
420 2 13.6605 16.7027 -0.0446945
368 2 14.2002 17.8522 3.33651
371 2 14.1198 12.6496 2.96676
381 2 17.6221 14.4597 0.646225
12 1 15.3013 13.9148 2.27091
8 1 15.5659 17.0441 3.97978
18 1 12.8148 18.5665 3.71987
283 2 17.0724 17.6348 3.30162
206 2 10.9794 14.1395 1.34686
293 2 12.3384 15.4863 2.96488
64 1 18.4858 18.0571 2.65612
337 2 9.73146 14.8372 4.20369
62 1 11.0152 14.7326 2.76833
424 2 15.2014 15.5301 3.0582
187 2 14.09 14.4493 1.22391
76 1 13.3089 16.0256 1.62901
309 2 14.7073 15.0496 7.6287
433 2 18.205 14.1476 8.52622
312 2 19.1218 14.2013 6.10028
391 2 12.1116 13.9934 5.71713
388 2 9.78746 12.9624 7.04479
7 1 11.6557 12.7887 6.90213
281 2 9.5887 15.6001 8.71874
343 2 16.9014 16.2498 6.85934
138 1 18.836 12.6811 8.88047
352 2 14.631 16.888 5.50105
82 1 15.1445 16.5907 6.94421
259 2 15.0181 18.1435 7.55012
153 2 12.0488 13.4992 8.37118
426 2 11.6932 16.2038 7.57736
275 2 9.99987 16.9945 5.81883
331 2 17.4669 18.9336 7.02684
225 2 12.2339 17.9577 5.01735
99 1 11.6862 17.1503 6.40496
122 1 18.2795 15.1948 7.20607
20 1 14.0921 13.7331 8.59528
35 1 10.7992 14.4865 8.84405
267 2 14.3388 13.7441 10.4047
45 1 18.5087 17.4328 12.1989
317 2 12.0916 17.9746 12.4081
310 2 16.5487 19.04 9.66028
89 1 10.9784 13.2519 12.1484
176 2 9.44059 12.8886 12.7148
351 2 11.8348 12.9439 13.4432
80 1 13.5749 18.3749 12.7901
392 2 10.643 14.238 10.6057
375 2 14.3157 17.7971 11.1097
224 2 16.8797 17.0033 11.8523
88 1 15.9452 17.8758 10.8572
410 2 13.5264 17.07 13.8907
29 1 17.584 15.5141 18.9515
398 2 13.041 18.4808 17.5326
274 2 16.282 16.6567 18.2103
162 2 18.2953 15.067 14.5846
90 1 12.4232 13.0199 14.9956
270 2 15.8514 14.8235 15.0999
13 1 17.2213 14.713 15.666
222 2 14.43 16.3934 16.6704
163 2 17.4359 18.6189 14.5588
334 2 17.8106 14.6082 17.5101
181 2 10.4823 16.8019 15.2876
55 1 9.43835 15.737 14.8684
325 2 12.9121 14.5845 15.1038
385 2 18.1532 18.1227 17.1018
33 1 14.2437 15.9506 15.0217
384 2 15.5903 19.0788 17.8222
50 1 13.9774 17.1781 17.9179
103 1 16.9775 18.1649 18.2615
ITEM: TIMESTEP
100000
ITEM: NUMBER OF ATOMS
450
ITEM: BOX BOUNDS pp pp pp
-3.4070039541031250e-01 1.9066125545559750e+01
-3.4070039541031250e-01 1.9066125545559750e+01
-3.4070039541031250e-01 1.9066125545559750e+01
ITEM: ATOMS id type x y z
258 2 1.04881 4.22982 -0.15969
62 1 5.96307 0.760089 3.50571
61 1 7.08534 3.77381 0.534198
192 2 2.36005 4.71841 1.58471
280 2 5.70108 2.52294 0.134253
298 2 4.3872 -0.0823909 3.79745
440 2 6.24375 4.64477 1.60042
275 2 4.63854 4.41009 3.29828
6 1 5.46467 5.69304 2.43881
136 1 2.07423 3.0645 1.02853
188 2 1.3111 1.86331 1.75159
318 2 8.52197 2.61989 0.647179
235 2 6.59496 0.748915 2.04868
200 2 9.24096 2.25581 4.56903
194 2 5.66244 2.3345 3.93569
229 2 2.97966 0.0490053 1.59634
60 1 -0.0249201 1.20544 3.20392
420 2 1.04057 5.98562 3.30889
406 2 9.0663 0.129421 2.08251
316 2 0.0250181 2.79446 8.90092
364 2 1.29651 1.47956 6.83138
244 2 9.0669 6.09421 6.77857
21 1 6.5109 0.703172 8.89509
7 1 1.88835 2.5711 5.96988
432 2 3.4709 3.33355 6.54137
383 2 5.2088 1.47347 8.22253
332 2 1.38323 4.55949 5.47886
123 1 0.192459 5.38742 4.84749
227 2 5.2833 4.42974 7.71442
56 1 4.50252 2.89116 8.09485
148 1 5.87084 5.92232 8.14442
202 2 7.51868 5.40947 8.69694
177 2 2.55531 1.23188 4.84922
331 2 6.8078 4.511 5.13523
303 2 7.58971 0.173765 4.84576
286 2 -0.0826038 0.302747 4.6753
86 1 2.81307 -0.307867 8.9422
309 2 3.23536 -0.27524 7.05614
91 1 5.53386 3.70891 4.65018
253 2 8.17047 5.19818 11.1927
104 1 3.72635 4.92802 10.4657
228 2 4.59823 1.45668 13.1132
217 2 2.30448 1.11148 9.39863
96 1 0.241022 0.641844 12.4044
240 2 1.42654 1.92121 12.504
344 2 5.68518 0.638572 11.2867
165 2 0.368333 4.23787 13.0754
382 2 5.23488 4.29894 10.2507
263 2 6.31101 3.12698 11.7998
122 1 2.07009 3.49117 13.0878
355 2 2.96456 4.32194 11.904
55 1 6.20143 1.67782 12.5344
210 2 0.0166426 0.811621 10.7256
350 2 7.0949 2.66191 9.34565
16 1 6.86729 3.97777 10.3622
109 1 0.854632 1.66505 9.70846
301 2 7.77202 0.508872 9.68627
374 2 9.06525 0.576841 11.7716
402 2 3.5942 3.3852 9.39735
414 2 7.42981 4.31508 18.301
256 2 3.13389 2.98112 14.6279
70 1 8.23029 4.63365 16.7548
446 2 1.79588 -0.13385 18.4061
31 1 1.09868 0.723606 17.2115
372 2 2.41273 4.64594 17.2266
68 1 4.63478 2.30041 18.3572
334 2 4.52309 3.21611 16.6206
169 2 6.06631 1.37034 14.5368
32 1 2.768 3.22778 16.6089
389 2 3.8176 0.604422 15.4185
295 2 8.00684 2.98719 15.9743
238 2 2.09241 1.7394 16.5139
385 2 7.59204 0.333387 16.5358
73 1 1.7756 5.59925 18.4488
163 2 4.30288 0.705398 18.1584
201 2 3.01434 2.64156 18.9892
71 1 7.90204 1.38803 15.3655
98 1 4.43366 1.81439 14.6707
156 2 0.260667 1.89957 18.1542
183 2 8.83505 0.730655 18.7825
339 2 8.52554 0.466437 14.2626
126 1 2.47157 6.1741 2.28256
366 2 8.62166 11.7373 1.75889
270 2 3.94533 6.90288 2.32951
317 2 1.26665 6.96508 1.27589
368 2 1.78055 11.2588 3.69535
326 2 6.05165 6.77586 3.73404
349 2 0.208903 9.04188 3.03197
162 2 7.89865 6.29264 0.593673
20 1 8.15587 10.9177 0.499686
82 1 -0.31634 10.4466 3.88563
112 1 0.41066 8.40572 1.47278
436 2 2.03854 9.1041 0.716045
241 2 4.02865 10.951 -0.349457
352 2 7.67968 9.25205 0.373508
187 2 6.71437 11.1417 -0.273897
367 2 6.96637 10.3899 6.81583
72 1 6.96337 7.43206 4.97199
219 2 5.33882 7.12521 8.95552
186 2 6.16684 7.50839 6.37683
321 2 8.70189 7.82975 5.14197
144 1 7.22377 10.4752 8.36476
398 2 8.96277 9.72687 8.10997
433 2 7.56526 11.9042 9.16431
140 1 8.76139 6.74345 11.0025
155 2 3.13007 6.62475 10.1384
87 1 1.70632 11.7066 12.1558
311 2 4.68033 8.22738 11.4004
445 2 6.05104 9.91978 9.34558
239 2 2.73658 10.3462 12.0105
175 2 0.16749 11.1651 12.3195
37 1 3.11674 8.71003 11.8718
381 2 0.051094 9.25551 9.85406
410 2 2.80206 7.93518 13.3144
230 2 6.8752 12.0114 11.9721
66 1 5.74471 8.35466 10.0214
149 1 6.54099 11.9047 13.572
166 2 7.28068 7.81842 10.4154
422 2 0.558229 7.13933 11.3061
159 2 4.78285 11.6094 13.7441
299 2 9.34682 7.44545 12.2831
205 2 0.000395883 8.63014 14.035
221 2 4.94266 12.2615 10.1978
116 1 0.60852 9.8252 15.3824
304 2 0.284467 6.65058 17.9383
13 1 6.05262 9.71616 18.7672
203 2 4.25638 11.6845 16.1363
290 2 2.20174 10.5549 15.2811
83 1 3.23319 8.61356 18.9612
130 1 3.57205 11.0472 14.7503
58 1 6.66042 8.10247 15.7667
425 2 1.82369 12.315 17.5478
215 2 2.03227 7.30693 15.4121
336 2 5.15205 7.65544 15.0462
261 2 2.80027 9.52177 17.5378
438 2 6.8859 8.40103 17.362
22 1 3.05631 11.1843 17.6492
379 2 7.15007 9.64387 14.8923
101 1 3.21039 7.17241 14.4555
319 2 8.00231 6.39706 16.428
327 2 9.0642 11.6075 18.651
419 2 2.68668 6.94085 18.5166
242 2 4.7943 8.50915 19.0889
65 1 8.19983 7.83447 19
146 1 8.0379 13.08 2.93073
24 1 4.61357 15.8533 3.85386
325 2 4.3532 17.9595 0.75855
315 2 7.65729 14.2946 4.1359
67 1 2.03363 12.9753 3.41665
191 2 3.48617 13.0537 2.45629
345 2 6.32243 13.2377 2.45476
114 1 2.95263 19.0447 0.0498239
437 2 3.89686 17.2043 3.23909
107 1 4.89922 13.0363 1.47165
243 2 5.15474 13.924 0.0990968
268 2 0.100468 16.3488 1.28954
416 2 1.23038 12.6336 0.556148
294 2 0.542049 13.6889 3.6811
50 1 3.85489 18.5203 2.45469
347 2 8.59398 17.0926 3.74555
248 2 1.82572 17.4517 0.968419
76 1 1.19861 16.2943 -0.0667246
182 2 3.51708 15.1555 4.33226
431 2 6.19096 16.0881 3.41823
236 2 6.5621 15.7072 -0.266962
377 2 6.0503 16.3857 8.53863
59 1 0.592882 14.0948 8.9973
108 1 0.201235 18.4633 5.67708
49 1 3.52811 18.3592 5.69271
57 1 7.63347 16.0228 4.46914
168 2 0.870852 15.7028 8.03754
214 2 2.19566 13.267 9.04793
444 2 7.82906 16.2383 6.32029
63 1 7.18415 17.2486 7.75028
213 2 1.59733 17.6754 5.63195
418 2 6.73337 18.9032 7.67623
296 2 1.58543 18.0279 9.21811
308 2 4.9628 17.5491 5.79503
27 1 0.206154 17.0362 8.32099
292 2 8.84589 17.4481 8.24231
173 2 4.80687 17.5769 13.6086
353 2 2.5276 12.9708 11.4969
362 2 0.707071 16.0561 13.3018
276 2 7.70105 18.0431 13.4137
160 2 2.66114 17.3461 12.3505
365 2 0.521279 18.7715 13.4069
415 2 3.79814 18.3424 10.1064
90 1 3.43041 13.0621 10.1474
195 2 6.35306 14.5113 10.3702
77 1 5.10275 15.723 9.8453
103 1 6.51228 17.132 13.2858
411 2 5.47335 17.4224 11.6365
386 2 0.592493 15.2297 10.5279
125 1 3.96801 18.0151 11.7326
158 2 0.581762 13.6157 13.5141
105 1 1.50053 17.4445 13.6167
387 2 3.80225 14.9806 9.7676
79 1 6.45173 12.9638 10.456
351 2 7.21062 15.6737 13.751
115 1 9.12158 18.7851 13.0012
30 1 8.86986 18.6733 10.2605
310 2 4.19424 15.441 17.2408
45 1 7.78268 15.5254 17.9825
384 2 8.83867 14.3376 18.4226
277 2 8.69811 14.1557 16.0359
93 1 3.69213 15.7434 15.6984
348 2 2.36342 16.6543 15.2547
132 1 8.89536 18.6716 17.5655
199 2 6.79265 15.3896 16.6462
312 2 1.02419 17.027 17.7006
396 2 6.66163 13.123 14.5125
4 1 6.4007 14.5694 14.9557
180 2 4.82302 14.9204 14.5995
113 1 0.535455 13.6189 18.9078
23 1 4.86351 15.4263 18.71
269 2 8.62072 17.1532 17.967
189 2 0.881185 14.9242 18.3828
393 2 0.30555 18.9417 16.1537
38 1 11.6334 5.8755 1.90355
170 2 12.6644 3.93809 4.28874
43 1 17.1568 3.08955 3.7665
8 1 9.49107 1.33433 0.703389
259 2 14.6696 0.843591 3.18383
278 2 15.4961 1.28115 0.40909
174 2 15.122 4.50681 0.306397
450 2 18.6407 2.46 3.15144
285 2 17.6373 2.52273 -0.134556
323 2 13.2152 5.54206 2.13861
34 1 14.8671 -0.134901 0.538471
391 2 16.0036 4.65695 2.63304
129 1 16.1788 2.98642 0.569225
153 2 16.4656 1.60862 4.52806
48 1 15.3933 5.94419 1.18126
102 1 14.3078 4.13076 3.75323
380 2 11.2547 5.76843 0.207737
206 2 13.0298 4.12581 7.4577
234 2 10.5752 1.21362 6.69
262 2 9.90876 3.91023 9.10784
139 1 17.7512 2.65489 8.38577
111 1 12.533 5.04713 6.19899
370 2 11.1068 5.61803 6.22327
409 2 17.9873 4.15127 7.55072
430 2 14.3019 0.541667 6.56513
333 2 15.1214 3.54074 4.86435
224 2 18.0324 1.72882 7.06501
127 1 9.46091 5.42793 8.3605
84 1 17.6154 5.9293 8.146
273 2 13.798 5.8581 5.20772
373 2 18.1634 4.48899 4.56109
74 1 9.5069 0.713241 4.94994
143 1 14.9785 0.83263 4.94971
361 2 17.0242 2.64042 10.0549
283 2 16.5229 0.214299 10.4811
181 2 17.1312 4.95059 11.981
211 2 18.3323 1.25544 12.7436
167 2 15.3494 2.77586 11.7446
154 2 12.8348 0.0729916 11.1929
135 1 18.3554 5.26103 13.2069
448 2 14.2245 4.83792 13.5423
145 1 14.5049 4.24474 12.0252
320 2 10.3165 -0.0610341 9.41011
17 1 11.6678 0.690092 9.61364
9 1 16.6202 1.72536 11.2686
251 2 13.7474 4.52119 10.4616
287 2 12.3934 2.13647 9.53201
293 2 14.1964 -0.212438 13.6375
12 1 12.7581 3.69389 9.40955
110 1 12.3575 2.55749 16.6543
226 2 15.9402 3.136 16.5544
42 1 15.2857 1.57888 16.5004
94 1 19.1406 3.20461 18.3563
399 2 11.9737 3.57631 17.9506
2 1 11.2694 5.34981 18.1911
375 2 11.5759 1.23635 16.0778
80 1 17.0337 4.30108 15.8794
371 2 17.6117 3.69667 14.3298
172 2 9.79681 5.01433 17.7144
342 2 13.9128 1.85325 17.354
313 2 16.0991 0.19283 16.7053
245 2 14.6868 5.63089 16.2273
47 1 13.542 4.36933 14.8868
250 2 13.1642 2.9161 15.0813
359 2 12.5594 5.12577 16.4555
281 2 17.9948 4.52999 17.3082
305 2 15.9318 1.28604 14.7534
1 1 11.2229 -0.224251 15.4082
338 2 10.9097 1.64009 19.0704
421 2 15.1219 7.61827 1.63697
53 1 12.8936 9.77453 3.1668
395 2 14.1225 8.43844 4.01585
400 2 18.3809 7.29288 0.639683
247 2 11.0936 7.2686 2.34369
118 1 16.5553 11.4023 2.29149
222 2 13.0615 9.76853 1.42787
204 2 18.2309 11.1392 2.48375
369 2 11.5896 11.9948 1.08775
28 1 17.5462 8.43206 -0.15421
208 2 13.7903 11.2575 3.70878
447 2 16.0669 9.65344 2.40033
161 2 11.3614 10.5004 3.52067
5 1 15.614 8.25117 2.96064
257 2 16.8048 6.90122 3.72702
133 1 12.6503 10.7035 0.109366
443 2 18.9457 9.32248 0.465517
429 2 11.2127 10.9947 8.00489
52 1 15.8584 8.76615 7.09667
427 2 15.9595 8.35429 5.39423
54 1 17.5055 7.04704 5.27289
100 1 13.2529 9.06044 8.40024
335 2 13.0859 11.7534 5.96409
246 2 17.6886 12.3356 7.71034
216 2 18.5692 11.4029 4.98816
97 1 11.8561 12.3928 7.18142
35 1 14.3748 12.3509 4.74509
196 2 15.867 12.0934 5.6832
260 2 11.8623 8.9495 9.21061
232 2 18.9479 6.15038 9.2376
390 2 17.4944 8.49247 7.95175
29 1 17.4811 11.9949 6.16533
255 2 14.1136 8.00863 7.09726
449 2 16.6158 6.67973 6.79999
10 1 13.7024 7.66072 5.40418
439 2 14.2466 10.3213 8.4808
117 1 10.4876 9.80142 8.86399
265 2 11.6245 7.53686 5.13617
36 1 10.1358 6.56329 5.38246
267 2 18.7495 6.40272 5.90724
329 2 12.9182 12.6105 8.53697
282 2 17.8939 11.3493 10.4997
141 1 16.102 8.60676 11.0617
46 1 17.774 8.27098 13.558
19 1 10.5179 9.61439 11.9584
346 2 17.2138 9.23133 12.2936
428 2 17.3387 7.8762 10.5799
178 2 12.5434 11.7033 11.9417
142 1 18.0873 10.8553 12.0191
404 2 11.8267 8.591 12.0995
426 2 14.1423 9.19939 13.6346
193 2 14.865 12.1171 13.4484
341 2 14.7179 9.32184 11.277
131 1 13.4944 8.41925 12.0008
291 2 10.1265 10.5472 13.2106
407 2 9.93073 10.0979 10.5086
284 2 18.1692 6.80251 13.2871
388 2 14.2501 6.91066 12.0048
3 1 13.2669 11.2757 13.3048
81 1 17.1476 12.5386 9.35981
119 1 12.1544 12.1402 10.262
354 2 14.7346 7.64551 9.54912
279 2 9.7777 6.36235 9.7385
78 1 18.8363 7.75432 10.1823
41 1 15.586 10.8752 17.7868
343 2 13.6537 7.8087 15.8946
147 1 10.6679 11.7451 14.3907
306 2 16.4217 12.4391 17.9624
164 2 14.2088 7.79198 18.0659
69 1 10.7704 8.42611 17.4997
324 2 11.9686 6.88932 17.6863
106 1 18.2071 7.00579 17.0654
302 2 16.93 7.24597 18.2001
376 2 14.8405 10.4849 16.2305
134 1 13.4835 6.47194 16.8295
51 1 14.568 9.05302 15.2779
207 2 9.68148 9.53048 16.3234
288 2 14.036 10.7284 18.6288
274 2 16.2028 7.96026 14.4155
357 2 12.4602 11.0604 14.6589
412 2 10.0039 12.4101 15.7281
237 2 11.6792 9.42724 18.5191
231 2 16.5774 9.88744 18.3182
198 2 18.9571 10.8319 15.024
233 2 18.96 8.53222 16.4589
264 2 9.41138 8.33465 18.3846
137 1 9.99924 12.5187 17.68
307 2 17.6307 6.42243 15.8177
15 1 11.2113 13.3419 2.00897
266 2 11.2792 14.6295 0.899562
89 1 15.4707 16.1951 1.56554
403 2 14.4267 16.2752 2.77701
218 2 15.5881 17.5656 0.725411
151 2 12.2517 13.9878 3.32045
185 2 17.0804 16.5371 2.01388
39 1 18.4591 17.1584 2.53126
225 2 9.89131 13.1315 3.01092
150 1 13.5398 15.0797 3.56199
121 1 9.77228 18.0747 2.94668
434 2 11.1845 17.5125 2.28898
401 2 16.1179 15.0342 0.336503
25 1 16.8238 13.438 -0.286921
397 2 14.9774 13.8707 3.6415
171 2 18.5582 19.0742 2.50552
300 2 13.6627 18.714 -0.325362
360 2 18.2621 13.2168 -0.155945
314 2 16.2298 12.6559 1.11095
271 2 10.245 19.0328 4.07017
197 2 13.6467 17.5099 6.80225
99 1 15.0957 18.3045 6.67156
322 2 11.2238 16.8474 6.85473
340 2 15.3824 13.2705 9.3173
120 1 10.3219 16.9971 8.07007
26 1 12.9734 16.1577 6.56842
394 2 15.6563 18.5449 4.93623
220 2 10.5037 13.241 7.33975
408 2 15.395 18.196 8.4636
272 2 13.2957 14.8132 7.80109
378 2 12.8795 15.8003 5.01232
249 2 18.9869 17.5257 6.94155
128 1 14.0466 14.3017 9.06148
330 2 12.1713 17.2258 12.5994
44 1 18.4895 15.9923 10.9771
95 1 11.3511 16.045 13.2694
405 2 10.9818 15.2194 11.8169
85 1 16.6228 14.4043 12.1003
124 1 11.1761 14.9628 10.2269
152 2 16.7352 12.8616 11.474
254 2 10.4659 13.0663 13.5508
356 2 17.1231 15.2115 10.492
289 2 12.8371 14.7062 9.95237
138 1 13.0253 18.5496 12.4677
209 2 10.9199 13.0133 10.2103
11 1 16.0105 18.0567 10.4593
190 2 14.5966 17.7004 11.1062
297 2 17.613 15.0187 13.2116
417 2 17.2989 17.2834 11.7196
358 2 14.7973 14.5403 12.4368
363 2 18.3695 13.6275 9.45229
18 1 14.035 14.0075 13.6852
184 2 12.4571 14.5784 13.4847
176 2 10.9486 16.287 9.4083
64 1 19.06 14.9118 13.889
179 2 10.515 18.7836 13.9492
157 2 18.3477 17.1475 9.55696
212 2 9.4059 17.7955 11.693
92 1 19.0769 16.9791 16.8983
424 2 18.5119 16.6865 15.63
441 2 10.0297 18.6046 16.5448
392 2 13.3542 17.4195 17.1757
88 1 16.7841 18.0279 17.1939
337 2 17.6601 17.1687 18.1509
328 2 14.2254 14.941 15.2857
223 2 10.0959 15.5286 14.2891
423 2 15.4899 16.9454 15.9611
40 1 12.5684 17.6759 18.5547
435 2 11.3192 13.4558 18.0195
442 2 13.4839 15.3569 18.8879
252 2 12.3747 17.3192 15.0623
75 1 13.9419 16.5684 15.8493
14 1 9.88908 14.1611 15.147
33 1 11.7772 14.9166 18.6314
413 2 11.3328 16.5481 18.6521
ITEM: TIMESTEP
200000
ITEM: NUMBER OF ATOMS
450
ITEM: BOX BOUNDS pp pp pp
-4.2336295149575776e-01 1.9148788101645113e+01
-4.2336295149575776e-01 1.9148788101645113e+01
-4.2336295149575776e-01 1.9148788101645113e+01
ITEM: ATOMS id type x y z
403 2 0.32507 2.69273 -0.120637
123 1 0.701274 2.87303 1.76848
301 2 6.21575 1.562 1.54895
164 2 7.53316 4.51752 3.99213
361 2 5.89291 -0.172388 3.70353
79 1 6.07049 1.44145 3.37876
282 2 2.22832 2.5829 2.15766
154 2 4.34363 1.74312 3.5602
281 2 7.83277 1.43707 4.43811
96 1 5.80643 2.15406 0.0491573
245 2 0.532918 4.61243 1.8963
378 2 1.97187 -0.193315 0.106963
62 1 3.48727 -0.401746 -0.452778
92 1 8.60179 3.1331 3.7226
275 2 4.49899 3.68518 0.108165
142 1 0.734 5.37814 3.4233
213 2 9.16331 3.70364 2.0436
99 1 2.80857 1.77512 4.03433
155 2 4.98609 5.73563 0.568069
280 2 6.02287 5.26858 8.32864
35 1 3.19329 4.25389 7.59862
360 2 8.22016 0.385759 7.34006
405 2 3.80776 2.7592 8.00876
327 2 3.58258 5.32784 9.11126
406 2 2.60385 -0.11925 5.44977
374 2 4.37583 4.65057 6.50577
335 2 2.71713 3.05994 5.01078
433 2 7.37221 3.71898 7.08969
3 1 7.68007 1.83231 7.93631
150 1 4.61958 1.37389 8.57957
82 1 6.11381 4.79501 6.8387
51 1 8.09842 6.16085 4.83834
212 2 6.73958 5.93042 5.8963
67 1 0.231772 5.38706 6.88782
380 2 1.79348 5.53996 7.72426
447 2 5.05041 0.177736 7.65907
270 2 6.20641 2.27181 8.63055
168 2 0.639449 5.58416 5.0728
395 2 6.05708 0.418577 14.1017
274 2 1.74808 1.80406 11.9481
292 2 5.47701 3.25049 13.5606
12 1 8.37533 1.52815 11.1253
31 1 5.66365 4.60098 12.9941
83 1 0.992121 2.8701 12.9682
440 2 2.13904 3.98618 13.3762
103 1 5.76703 1.65837 13.2593
175 2 3.62878 0.955075 9.68192
75 1 5.20364 5.64928 9.84501
80 1 3.00664 1.15971 11.3046
346 2 4.8295 4.74638 11.4392
181 2 4.52358 5.6912 14.0517
171 2 8.33163 2.01156 9.34511
257 2 4.16066 1.33687 12.4118
289 2 6.93497 2.03336 11.7974
222 2 0.95099 5.93786 10.4266
32 1 7.58962 -0.367387 13.4503
295 2 1.86295 -0.243939 10.9964
355 2 8.0528 -0.187258 11.7631
158 2 -0.315609 -0.588331 9.77828
203 2 8.84698 5.23416 14.4667
25 1 3.22573 4.99811 14.6011
315 2 1.23498 1.32479 16.9552
41 1 0.489218 5.20852 18.2435
220 2 5.81266 2.10255 16.4627
173 2 8.21248 3.58702 16.676
263 2 7.25616 2.36084 18.7682
182 2 3.29321 3.59069 16.3773
450 2 3.12633 1.09388 15.6479
353 2 2.15275 5.38605 18.7886
13 1 7.36153 2.12007 17.1381
135 1 4.25125 2.20239 15.8922
445 2 4.53985 0.833055 19.0711
125 1 0.371706 2.66004 16.5338
6 1 2.18286 0.00106703 16.511
194 2 8.02089 0.532312 16.9437
198 2 0.299577 2.75252 14.5596
417 2 0.611875 3.96776 17.2706
87 1 3.58693 4.89729 19.2434
95 1 9.12567 3.72785 15.283
277 2 8.73412 0.327598 14.6994
9 1 8.97636 10.1861 3.12235
225 2 2.16047 8.72122 1.39548
101 1 8.36205 7.43973 1.85345
323 2 6.06169 11.6345 1.35389