LAMMPS (29 Oct 2020)
OMP_NUM_THREADS environment is not set. Defaulting to 1 thread. (src/comm.cpp:94)
  using 1 OpenMP thread(s) per MPI task
units 		real
dimension 	3
processors 	* * *
boundary 	p p p
atom_style 	charge
atom_modify	map array

#pair_style     hybrid/overlay coul/long 10.0 table linear 10000
pair_style     table linear 10000
read_data       tmp.dat
Reading data file ...
  orthogonal box = (-0.42652611 -0.42652611 -0.42652611) to (19.151951 19.151951 19.151951)
  2 by 3 by 4 MPI processor grid
  reading atoms ...
  450 atoms
  reading velocities ...
  450 velocities
  read_data CPU = 0.006 seconds
#pair_coeff     * * coul/long
pair_coeff     2 2 ../ff_fitting.table OO
WARNING: 30 of 8000 force values in table OO are inconsistent with -dE/dr.
  Should only be flagged at inflection points (src/pair_table.cpp:461)
pair_coeff     1 2 ../ff_fitting.table SiO
WARNING: 7 of 8000 force values in table SiO are inconsistent with -dE/dr.
  Should only be flagged at inflection points (src/pair_table.cpp:461)
pair_coeff     1 1 ../ff_fitting.table SiSi
WARNING: 16 of 8000 force values in table SiSi are inconsistent with -dE/dr.
  Should only be flagged at inflection points (src/pair_table.cpp:461)

#kspace_style    pppm 1.0e-5
neighbor        2.0 bin
neigh_modify    every 1 check yes
timestep	1

dump 1 all custom 100000 sim.xyz id type x y z

thermo_style    custom step temp pe press pxx pyy pzz pxy pxz pyz lx ly lz xy yz xz density
thermo          100000

##generate velocity
velocity        all create 3000 18107
#velocity       all scale 0

#NVT run
fix              1 all npt temp 3000 0.01 100 iso 0 0 1000
run              30000000
Neighbor list info ...
  update every 1 steps, delay 10 steps, check yes
  max neighbors/atom: 2000, page size: 100000
  master list distance cutoff = 10
  ghost atom cutoff = 10
  binsize = 5, bins = 4 4 4
  1 neighbor lists, perpetual/occasional/extra = 1 0 0
  (1) pair table, perpetual
      attributes: half, newton on
      pair build: half/bin/atomonly/newton
      stencil: half/bin/3d/newton
      bin: standard
Per MPI rank memory allocation (min/avg/max) = 4.377 | 4.381 | 4.384 Mbytes
Step Temp PotEng Press Pxx Pyy Pzz Pxy Pxz Pyz Lx Ly Lz Xy Yz Xz Density 
       0         3000   -39923.927   -4451.1413   -13705.694     4119.987    -3767.717   -135.20925   -931.64841   -4095.0935    19.578477    19.578477    19.578477            0            0            0    1.9941047 
  100000    2931.8464   -39898.333    3262.8023    5882.7871    -9580.942    13486.562    6307.9261   -3071.8834    7174.1188    19.284942    19.284942    19.284942            0            0            0    2.0865542 
  200000    2941.7308   -39912.432     14324.41    22031.827    12087.079    8854.3255   -10022.715    9410.5472    5800.5974     19.29783     19.29783     19.29783            0            0            0    2.0823765 
  300000    2977.9456   -39990.383    8217.6506     11796.46    9331.7425     3524.749    881.35556    3011.4576    107.69309     19.55298     19.55298     19.55298            0            0            0     2.001916 
  400000    2857.1729   -39797.866   -13340.495   -7750.2001   -18598.497   -13672.788   -6405.9669   -487.11606    1014.0105    19.737801    19.737801    19.737801            0            0            0    1.9462042 
  500000    2965.6347    -40076.39   -2033.0242   -13358.261    4843.3611    2415.8271      677.323   -3893.1965    4308.1927    19.550821    19.550821    19.550821            0            0            0    2.0025792 
  600000    2856.1531    -40246.01    9955.9957   -2014.3282    14845.117    17037.198    9219.6966   -1422.7925   -3100.1455    19.357929    19.357929    19.357929            0            0            0    2.0630418 
  700000    3007.0415   -39558.575    11227.997    13260.543    4880.8387    15542.608     5578.045   -4480.8042    2405.1741    19.822418    19.822418    19.822418            0            0            0    1.9213867 
  800000    3076.1168   -40131.168     5117.528    5433.3776   -4340.7823    14259.989   -1358.5004    997.65821   -1348.2064    19.319647    19.319647    19.319647            0            0            0    2.0753298 
  900000    2905.1884   -40360.063    6697.7052    2685.7979    13097.576    4309.7422   -5348.9165   -2970.7878    216.14328    19.416889    19.416889    19.416889            0            0            0    2.0443052 
 1000000    2990.8797   -40235.917    7292.6438    9469.9129    6342.5965    6065.4219    7723.9673   -2571.5086    3172.1778    19.571277    19.571277    19.571277            0            0            0    1.9963065 
 1100000     3068.021   -40125.223    13609.836    10307.271    16529.017    13993.219    2381.7249   -6723.5927    2047.7806    19.700955    19.700955    19.700955            0            0            0    1.9571444 
 1200000     2734.513   -40299.909   -8646.8221   -11775.506   -15167.057    1002.0972    6975.2983    11114.876   -344.45932    19.179657    19.179657    19.179657            0            0            0    2.1211053 
 1300000    2728.9832   -40565.189   -1704.0033   -7074.2603    3124.4612   -1162.2107    6296.7304   -9052.2308    3480.6532    19.416835    19.416835    19.416835            0            0            0    2.0443225 
 1400000    2874.6112   -40013.593    2176.1473    8757.2221   -4181.8385    1953.0582   -5196.6518    3368.2011    5341.1012     19.61747     19.61747     19.61747            0            0            0    1.9822375 
 1500000    2922.9679   -40162.769   -1069.5021    5320.1945   -7737.8625   -790.83844    5817.8224    6652.3434    430.60123    19.706151    19.706151    19.706151            0            0            0    1.9555967 
 1600000    2653.8544    -40392.16    2774.2745    2968.2105    2806.7115    2547.9016   -5144.8848    5202.2905    9962.0862    18.984573    18.984573    18.984573            0            0            0    2.1871684 
 1700000    2813.0431   -40360.261   -2585.5246   -6627.1098    643.29818   -1772.7622   -4896.2348   -6461.4084   -625.15918    19.082969    19.082969    19.082969            0            0            0      2.15351 
 1800000     2884.141   -40297.272    1401.8833    10992.053   -1120.5467   -5665.8559    7806.8458    4346.9281   -1821.7712     19.46293     19.46293     19.46293            0            0            0    2.0298317 
 1900000    2725.7662   -40205.789   -1876.4376    7978.1329   -2774.7731   -10832.673   -5461.4047   -2508.1789    1496.6792    19.408724    19.408724    19.408724            0            0            0    2.0468864 
 2000000    2882.2968   -40207.215   -4906.7886    2333.4319   -11788.423   -5265.3747    6531.6574   -7032.4015    2154.9117    19.122435    19.122435    19.122435            0            0            0    2.1402038 
 2100000    2823.2151   -40712.929   -587.24159   -18963.897    9127.5021      8074.67     3821.049    3867.6142    11775.814    19.237176    19.237176    19.237176            0            0            0    2.1021357 
 2200000    2616.6561   -40667.601   -11841.422   -11762.316   -18775.914   -4986.0373   -5313.5372    7090.6426   -1318.8056    19.296093    19.296093    19.296093            0            0            0     2.082939 
 2300000    2938.4951   -40795.191   -2036.7481    10986.774    3438.9543   -20535.973   -4241.3941   -2682.0863    3426.7383    19.291808    19.291808    19.291808            0            0            0    2.0843273 
 2400000    2797.2122   -40496.017    -6848.319   -16695.127   -723.77472   -3126.0554    9176.5125   -1500.1363    5558.8805    19.162377    19.162377    19.162377            0            0            0    2.1268484 
 2500000    2761.4696   -40664.474   -4866.3348   -4585.3313   -7538.0139   -2475.6591    6901.2669    4439.0702     9395.572    19.319692    19.319692    19.319692            0            0            0    2.0753153 
 2600000    2654.9165   -40793.581   -6636.5155   -9611.2308   -4592.0898   -5706.2258   -9505.4798    7164.4635   -3122.6268    19.420475    19.420475    19.420475            0            0            0     2.043173 
 2700000    2588.6343   -40801.526   -17139.754   -29602.356   -13347.743   -8469.1636    11183.493    2055.4044   -3042.4635    19.488736    19.488736    19.488736            0            0            0     2.021779 
 2800000    2779.7113   -40578.696    16139.202     10530.87    26796.044    11090.691   -5014.3994    10620.529   -988.07816    19.318688    19.318688    19.318688            0            0            0    2.0756389 
 2900000    2718.1095   -40320.119   -9493.5706    2753.8521   -7371.6371   -23862.927    4318.6514    1663.4642   -1436.7816    19.281328    19.281328    19.281328            0            0            0    2.0877279 
 3000000    2765.2678   -41167.722   -6336.1028    2923.2047   -2677.2869   -19254.226    6348.4658    1856.0284    2567.7823    19.034408    19.034408    19.034408            0            0            0    2.1700341 
 3100000    2811.8629   -41080.577   -915.43094   -1027.8303   -1128.9557   -589.50685   -1990.9479    1434.5525   -5834.7163    19.490093    19.490093    19.490093            0            0            0    2.0213568 
 3200000      2681.49   -40594.337    8852.8314    12774.236    24.949869    13759.309   -2572.0283   -687.68517    10625.736    19.386117    19.386117    19.386117            0            0            0    2.0540556 
 3300000    2805.9542   -40796.492    -1634.498   -3395.3254   -15164.827    13656.659     4847.308   -4852.9953    1089.9475    19.123681    19.123681    19.123681            0            0            0    2.1397853 
 3400000    2562.0126   -41047.588   -3449.0298    -11309.23   -633.42284    1595.5635    1176.4275    5338.2212    717.01405    19.062864    19.062864    19.062864            0            0            0    2.1603306 
 3500000    2706.0515   -40456.527   -1390.0951   -2373.6033    2860.9129   -4657.5949    3246.6808   -6542.4745    9146.8832    19.410259    19.410259    19.410259            0            0            0    2.0464009 
 3600000    2673.4941   -40864.936    8396.0177    17786.654    5544.9658    1856.4331    2915.7227   -2305.1479    768.82107    19.116116    19.116116    19.116116            0            0            0    2.1423269 
 3700000    2516.2729   -41077.284   -2830.9564   -1896.2767   -8135.5529    1538.9603   -4490.2035    5821.4933   -3248.6436    19.095516    19.095516    19.095516            0            0            0    2.1492675 
 3800000    2474.0059   -40882.364   -5929.7548   -11329.115    5351.2044   -11811.353   -2896.3106    6304.3686    7363.0166    19.504641    19.504641    19.504641            0            0            0     2.016837 
 3900000    2481.8178   -40831.782   -118.37811    13965.435   -11981.202   -2339.3672    5337.6853   -2091.8845   -1258.0247    19.403576    19.403576    19.403576            0            0            0    2.0485159 
 4000000    2386.7474   -40822.607   -10007.925   -4154.9545   -16283.387   -9585.4325   -1071.2476    783.45109    15608.959    19.176935    19.176935    19.176935            0            0            0    2.1220085 
 4100000    2670.2956   -41086.005    3720.1991   -2375.7833    7035.8066     6500.574    -14477.75    11313.089    3565.4712    19.237619    19.237619    19.237619            0            0            0    2.1019905 
 4200000    2726.7198   -41129.264    9039.7117    11026.218    2919.4573     13173.46   -8266.8122    -11464.83    5217.3842    19.037641    19.037641    19.037641            0            0            0    2.1689289 
 4300000    2764.3944   -41219.851    6179.4218    286.13505    7807.5612    10444.569    2856.7091   -7980.9658   -216.38926    19.049726    19.049726    19.049726            0            0            0    2.1648035 
 4400000    2607.1036   -41349.005   -8230.8544   -12871.761   -7261.7722   -4559.0303    -8359.147    -3630.197    6979.3251    19.154199    19.154199    19.154199            0            0            0     2.129574 
 4500000    2486.6488   -41207.616    9514.9009    996.37335    4323.1598    23225.169    4085.7869    5955.6084    -5543.432    19.196654    19.196654    19.196654            0            0            0    2.1154759 
 4600000    2747.1495   -41773.736    2883.8041    18055.884   -11842.313    2437.8407   -3601.5537    8965.8557   -1657.6786    19.227458    19.227458    19.227458            0            0            0    2.1053248 
 4700000    2386.2902   -41705.072   -4165.0273   -10392.868   -10895.159    8792.9446    2117.5678    2497.8232     -1159.15     19.06115     19.06115     19.06115            0            0            0    2.1609135 
 4800000    2436.3342   -41417.706     4358.949    2847.9569    3982.3297    6246.5604    4088.0658    -3730.253    1199.8411    18.933391    18.933391    18.933391            0            0            0    2.2049538 
 4900000    2424.2815   -41066.039    14085.146    14961.439    12735.733    14558.267     7619.401   -6173.7824   -4191.0487    19.009759    19.009759    19.009759            0            0            0    2.1784865 
 5000000    2424.9877   -41522.716   -625.43471   -619.16244      5353.26   -6610.4017   -3442.6017   -5525.3838   -2726.2819    19.182596    19.182596    19.182596            0            0            0    2.1201302 
 5100000    2540.3781   -41442.193    157.89587   -5745.1462    1327.0333    4891.8005    9745.5304   -7216.5926   -8307.1089    19.189823    19.189823    19.189823            0            0            0     2.117736 
 5200000    2506.5316   -41698.885   -4219.3695   -3232.1077   -6743.6957   -2682.3049    2325.7905   -2320.1881    7126.8462    19.051626    19.051626    19.051626            0            0            0    2.1641561 
 5300000    2457.7961   -41273.155    2992.5471    7918.9512    -8176.831    9235.5213   -1799.7822   -6805.7861    3268.2637    19.205558    19.205558    19.205558            0            0            0    2.1125349 
 5400000    2397.3722   -41612.766    13290.633      11417.2    17284.099      11170.6   -3506.4214   -1964.9612    4838.2385    18.956471    18.956471    18.956471            0            0            0    2.1969098 
 5500000    2525.1107   -41301.346   -1617.8329   -859.15886    3481.5042   -7475.8442   -1677.5545    7187.3718    5546.4224    19.236852    19.236852    19.236852            0            0            0    2.1022418 
 5600000     2400.805   -41420.095    3298.7655    11430.096    2424.8518   -3958.6519   -3544.3348    2685.6643    2717.5381    18.944636    18.944636    18.944636            0            0            0    2.2010298 
 5700000    2505.4384    -41543.81   -5342.3667   -4725.0893   -9338.9442   -1963.0665   -8277.8335    942.74043    570.46619    19.011946    19.011946    19.011946            0            0            0    2.1777347 
 5800000    2581.7974   -41517.032   -258.89265    1254.2493   -16850.987     14820.06   -1208.4955    2787.8063     420.2719    18.938233    18.938233    18.938233            0            0            0    2.2032631 
 5900000    2463.9591   -41663.579   -5663.2091   -6751.0516    4916.1841    -15154.76    2603.7693    7633.3374    5824.3289    19.249398    19.249398    19.249398            0            0            0    2.0981342 
 6000000    2491.1123   -41457.819   -2437.5088    3128.2514    4844.0343   -15284.812    5983.4547   -3502.3884   -4724.1095    18.913535    18.913535    18.913535            0            0            0    2.2119056 
 6100000    2410.6494   -41790.566   -1177.3336    3727.4508   -5343.7343   -1915.7174    -8319.049   -5034.9601   -4644.5289    19.155243    19.155243    19.155243            0            0            0    2.1292256 
 6200000    2236.7557   -42004.316   -1931.4638     8351.005   -6727.5184   -7417.8778   -5489.4465   -33.669713    5893.8453    19.166292    19.166292    19.166292            0            0            0    2.1255455 
 6300000     2289.651   -41621.946    1195.0711   -6031.3542   -650.94463    10267.512    5964.8489   -2863.8605    16029.625    18.895672    18.895672    18.895672            0            0            0    2.2181844 
 6400000    2316.0076   -41970.634   -192.71221    -5456.272   -2519.4986     7397.634    3258.3361   -1982.8685   -70.140837    19.025163    19.025163    19.025163            0            0            0    2.1731993 
 6500000    2347.8962   -41730.219    322.32254    1807.1071    5776.8759   -6617.0154    2363.4216   -372.45817   -7382.8057    18.965868    18.965868    18.965868            0            0            0    2.1936459 
 6600000    2394.9235   -42050.465   -5603.9756   -10175.874   -530.69959   -6105.3534   -3336.7818    10358.811    9341.6275     19.11573     19.11573     19.11573            0            0            0    2.1424565 
 6700000    2466.4837   -42083.178   -1464.7924   -1058.9368    1712.4808   -5047.9211   -961.82986   -1169.0222    4282.7573    19.054137    19.054137    19.054137            0            0            0    2.1633006 
 6800000    2371.0443   -42163.888   -1189.1508    1085.3094    8412.5641   -13065.326    10640.974    239.06346    3563.5994    18.910269    18.910269    18.910269            0            0            0    2.2130517 
 6900000    2117.6404   -41865.155   -10096.302   -6626.6533   -15418.747   -8243.5063    2663.3045    7761.0407    1022.3391    19.327353    19.327353    19.327353            0            0            0    2.0728484 
 7000000    2456.7793   -42092.122    -8871.247   -6821.4879    83.712368   -19875.965   -2755.1858    2641.3235    5881.5471    19.085869    19.085869    19.085869            0            0            0    2.1525285 
 7100000    2295.9059   -41933.492   -4509.6026    3439.7733   -21137.704    4169.1233    4382.5448    3119.5086   -6265.8492    19.079793    19.079793    19.079793            0            0            0    2.1545854 
 7200000    2248.4747   -42400.446   -3856.4058   -13270.023    7485.4762    -5784.671    1068.5875   -7055.0561    437.57716    19.216566    19.216566    19.216566            0            0            0    2.1089068 
 7300000    2165.4052   -42490.317   -6077.8038   -8524.1281   -10343.865     634.5817    19.554875    2284.6153    4520.5937    19.016645    19.016645    19.016645            0            0            0    2.1761207 
 7400000    2100.1327   -42117.981   -3485.8774    3497.7621   -14489.526    534.13196   -5450.4662    12762.515   -368.20685    18.805999    18.805999    18.805999            0            0            0    2.2500671 
 7500000    2075.4488   -42367.778   -3973.5788   -4060.2297    432.51776   -8293.0246    3015.7726    21616.054     8024.067    18.880299    18.880299    18.880299            0            0            0    2.2236073 
 7600000    2138.2219   -42218.023     3966.195   -3824.6829     15943.48   -220.21183   -3307.9545   -7287.4775   -1303.7488    18.910449    18.910449    18.910449            0            0            0    2.2129886 
 7700000    2217.7896    -42319.62    4392.8807    9847.3102    15433.364   -12102.032     7040.944     -11922.7   -10739.996    19.075853    19.075853    19.075853            0            0            0    2.1559209 
 7800000    2214.4588   -42327.575   -10705.522   -5143.6594   -4420.4764   -22552.432    6175.9699    5418.4946    2799.1397    19.056101    19.056101    19.056101            0            0            0    2.1626316 
 7900000    2279.8242   -42179.402   -6236.8333    3986.3204   -7797.3669   -14899.453   -4588.1028   -2772.3739    4200.5445    19.302203    19.302203    19.302203            0            0            0    2.0809614 
 8000000     2307.751   -42421.516    15494.405    19348.931    5540.9429    21593.342   -8810.8966      10163.9   -4760.4786     18.94691     18.94691     18.94691            0            0            0    2.2002372 
 8100000    2191.1924   -42660.612   -1163.6762   -945.66155   -9195.5602    6650.1932    5004.2565    5215.3532     9700.666    19.092068    19.092068    19.092068            0            0            0    2.1504323 
 8200000    2178.3061   -42402.347     6372.023    10201.263    316.78806     8598.018    400.15893   -7901.0224    2958.1638    19.120041    19.120041    19.120041            0            0            0    2.1410079 
 8300000    2240.8984    -42610.78    9982.3443    16516.977   -4433.8437      17863.9   -3521.9028    13235.334    5954.1832    18.900474    18.900474    18.900474            0            0            0    2.2164942 
 8400000    1986.7159   -42504.618   -5680.3133    4247.1389   -4284.4601   -17003.619    2075.1474    932.86534   -8008.0253    19.223054    19.223054    19.223054            0            0            0     2.106772 
 8500000    2074.2447   -42483.918   -6333.7226   -5905.8848   -5164.4767   -7930.8063    7027.8694   -6658.0288   -3347.2936    19.211317    19.211317    19.211317            0            0            0    2.1106358 
 8600000    2233.7387   -42591.592   -754.28911   -1709.8655   -870.19224    317.19036    6192.9366   -3058.0737   -14189.726    19.108773    19.108773    19.108773            0            0            0    2.1447975 
 8700000    2077.0402   -42602.762    935.39058    6513.6513   -771.94753   -2935.5321     1994.915    5432.4387     5087.564    18.848556    18.848556    18.848556            0            0            0    2.2348607 
 8800000    2103.8427    -42676.86   -2972.1966   -5033.8754   -1426.3014    -2456.413    5025.4384    12366.903   -1618.2679     19.13926     19.13926     19.13926            0            0            0    2.1345645 
 8900000     2124.805   -42410.034    3276.4147   -807.91268    14215.468   -3578.3113    253.93303   -5024.5288    3471.7818    19.205523    19.205523    19.205523            0            0            0    2.1125466 
 9000000    2049.0891   -42617.633    3901.3333    7729.7585   -1097.0087      5071.25    2622.6143   -13514.823   -6817.6046    19.040372    19.040372    19.040372            0            0            0    2.1679956 
 9100000    1966.3253   -42868.364    8682.3076    12950.258    2389.5615    10707.103   -6648.3585    774.64946   -874.68231    18.919975    18.919975    18.919975            0            0            0    2.2096477 
 9200000    2042.4361   -42794.966   -7419.8665   -9311.0133   -1725.6552   -11222.931   -6113.2098   -2091.3148   -2424.0557    19.052242    19.052242    19.052242            0            0            0    2.1639459 
 9300000     2091.151    -42924.79   -8212.5395   -6267.6015   -10828.866   -7541.1511    -233.1615   -5215.1373    9191.4124    19.175284    19.175284    19.175284            0            0            0    2.1225565 
 9400000     2001.025   -42678.854   -2403.9064   -6538.1491    3560.9773   -4234.5473    867.97892    1853.7307    7765.3983    18.883341    18.883341    18.883341            0            0            0    2.2225328 
 9500000    2056.2885   -42776.636   -1730.6195    2098.8191    487.54226     -7778.22    346.24772    7784.7293   -4168.8201     19.14431     19.14431     19.14431            0            0            0    2.1328756 
 9600000     2015.578   -42826.101   -4586.8538   -3532.5158   -1698.2402   -8529.8055    8599.1464    5283.3382     12620.66    19.166286    19.166286    19.166286            0            0            0    2.1255475 
 9700000    2042.2814    -43060.89   -12176.262   -8371.8495   -12642.221   -15514.714    3812.3941   -4934.3898    15017.601    18.984691    18.984691    18.984691            0            0            0    2.1871274 
 9800000    2080.7236   -42677.458   -3277.9129   -5779.8756   -13804.444    9750.5806   -3361.5675    3336.8878    2052.0906    18.963339    18.963339    18.963339            0            0            0    2.1945235 
 9900000    2093.0718   -42987.783      6428.61    9746.5524    3488.5976    6050.6799   -301.28088   -3869.8343     1593.696    19.109223    19.109223    19.109223            0            0            0    2.1446459 
10000000    1975.4235   -42964.835     2538.276    2504.6723   -604.30817    5714.4639    31.465139    465.98792   -2027.5399    19.153224    19.153224    19.153224            0            0            0    2.1298992 
10100000    1972.2463   -42782.591     3676.359     1448.199   -1652.8355    11233.713    1083.8339   -4251.7661    -1248.707    19.202808    19.202808    19.202808            0            0            0    2.1134427 
10200000    1920.1527   -43122.693    16248.663   -7946.8707    25077.234    31615.626    2378.9067    1792.0017    6277.4747    19.116947    19.116947    19.116947            0            0            0    2.1420476 
10300000    2054.0244   -43134.457   -3753.7538   -3337.2396     460.2091   -8384.2308   -9345.2796   -4849.4144    3487.7657     19.00752     19.00752     19.00752            0            0            0    2.1792565 
10400000    1979.1336   -43113.019   -12602.182   -12172.424   -16910.559   -8723.5622    5144.1092    1260.5541     1745.216    19.178724    19.178724    19.178724            0            0            0    2.1214146 
10500000    1950.4303    -43114.55   -7053.9312   -10836.248   -9310.5544   -1014.9915   -5912.0449   -3271.5968   -3344.5551    19.038013    19.038013    19.038013            0            0            0    2.1688016 
10600000    2023.5829   -43169.318   -2180.4542   -9619.8835     3604.549    -526.0282   -3952.5187    20912.161   -6314.7064    19.036637    19.036637    19.036637            0            0            0    2.1692722 
10700000    1863.0119   -43098.067      12207.5    10753.177    26847.921   -978.59682    1288.1781    2552.7727    2042.3662    18.855109    18.855109    18.855109            0            0            0    2.2325313 
10800000    1964.2338   -43232.043    236.93749    4335.7904    222.38905    -3847.367    14266.036    11568.577   -5064.8787    18.979432    18.979432    18.979432            0            0            0    2.1889461 
10900000    1932.8058   -43257.752    2494.5202    731.58152    -4191.862    10943.841    5952.0107    8637.2772   -2331.8478    18.853992    18.853992    18.853992            0            0            0    2.2329282 
11000000    1988.8798   -43274.822   -10240.308   -2178.4067   -14060.522   -14481.996    9455.3026    7882.2042   -2919.0038    19.003742    19.003742    19.003742            0            0            0    2.1805564 
11100000    1880.9296   -43528.967    2267.3618     422.4543   -5541.1414    11920.772   -6179.2385   -851.19566   -3390.0628    18.879743    18.879743    18.879743            0            0            0    2.2238037 
11200000    1899.3101   -43393.778   -3843.0227   -11211.069    3224.7807     -3542.78   -1363.3547    2190.6126    1958.2875    18.932593    18.932593    18.932593            0            0            0    2.2052326 
11300000    1834.7744   -43590.472   -2310.7179    5898.2113   -7633.9941   -5196.3709    841.97724    867.59354    2899.6476    19.070548    19.070548    19.070548            0            0            0    2.1577206 
11400000    1915.9714   -43252.102    5112.0083     11499.63    1530.1559    2306.2389   -157.28049   -987.40055    3218.0521     19.00681     19.00681     19.00681            0            0            0    2.1795005 
11500000    1887.9416   -43266.803   -2186.5749   -7073.1835   -1630.9781    2144.4368    909.35839     1217.182    9220.0303    19.121248    19.121248    19.121248            0            0            0    2.1406024 
11600000    1850.3689    -43337.94   -849.00982   -4112.6377    2439.0483    -873.4401    3653.1713    3367.5274    2078.1737    18.915992    18.915992    18.915992            0            0            0    2.2110436 
11700000    1789.2645   -43263.382   -2122.3634   -3134.1956   -4757.2842    1524.3898    14991.014    3238.0677   -6253.7022     19.00733     19.00733     19.00733            0            0            0    2.1793217 
11800000    1800.9868    -43460.38    5373.5743    10485.534   -11333.428    16968.616   -6690.2038    6265.4873   -3545.6275    18.743311    18.743311    18.743311            0            0            0    2.2727192 
11900000    1878.6597   -43747.782    7352.4833    8905.7643    9052.4919    4099.1937    303.78924    6361.3162    477.17001    18.887371    18.887371    18.887371            0            0            0    2.2211105 
12000000    1868.1092   -43648.906    11790.589   -392.51631    21993.369    13770.914   -4894.7653   -7503.2364   -410.63092    19.028544    19.028544    19.028544            0            0            0    2.1720411 
12100000    1737.2583   -43331.721   -15347.382   -10409.366   -15314.483   -20318.298   -4166.9767    2024.5778   -237.34407    19.077139    19.077139    19.077139            0            0            0    2.1554848 
12200000     1752.165   -43389.154   -2046.1695   -17470.399    3282.1211    8049.7692     353.5003    4075.4607    4007.7624    19.224173    19.224173    19.224173            0            0            0    2.1064043 
12300000    1792.8627   -43738.632   -5326.6442   -1644.9641   -5170.6608   -9164.3077   -8264.7067   -3492.0341    9173.8827    18.939308    18.939308    18.939308            0            0            0    2.2028878 
12400000    1902.5356   -43510.991   -9391.8279   -13452.688   -9091.1953      -5631.6    1685.0296   -1923.5149   -2801.6113    18.965038    18.965038    18.965038            0            0            0     2.193934 
12500000    1724.4236   -43687.207   -8567.7501   -8724.0836    -5481.624   -11497.543   -5273.0124   -3605.5317   -614.63312    18.968515    18.968515    18.968515            0            0            0    2.1927276 
12600000    1885.9743    -43634.68   -4417.9031   -11648.175    5564.5195    -7170.054   -1633.3359   -9142.3179    1314.3382    18.842338    18.842338    18.842338            0            0            0    2.2370738 
12700000    1756.4649   -43469.383   -6463.9346   -8442.2597    2973.2516   -13922.796    3932.6688   -6544.6845   -5543.6224    19.101948    19.101948    19.101948            0            0            0    2.1470974 
12800000    1758.6104   -43510.333    13672.922    9613.3508    15992.509    15412.907   -8267.3496    1453.1092   -1248.6484    18.624488    18.624488    18.624488            0            0            0    2.3164968 
12900000     1648.887   -43900.101    12088.076    21295.542   -1261.2907    16229.976   -8399.6316   -1075.7378   -10696.295    18.836134    18.836134    18.836134            0            0            0    2.2392852 
13000000      1781.84   -43615.187   -9370.4193   -5541.8966   -10329.395   -12239.967   -3363.2339   -2111.4383   -5673.8026    18.774202    18.774202    18.774202            0            0            0    2.2615192 
13100000    1635.9767   -43853.849    3478.4948    300.53561    8854.7216     1280.227   -4292.7869    4125.6352   -5730.6365    18.634294    18.634294    18.634294            0            0            0    2.3128414 
13200000    1634.6716    -43990.56   -7184.5694   -2505.9242   -10984.676   -8063.1082    3927.4727   -9935.7502   -1358.1155    18.937562    18.937562    18.937562            0            0            0    2.2034971 
13300000    1615.1231   -43865.963    4011.8053    7615.7212    3919.4191    500.27573   -6412.4314   -1188.1017    8686.5091    18.873739    18.873739    18.873739            0            0            0    2.2259267 
13400000    1818.0374   -43732.454    3890.5643    2418.9286    9178.2729    74.491351   -6195.8833    3715.6974    10912.497    18.782284    18.782284    18.782284            0            0            0    2.2586007 
13500000    1611.8621   -43725.483   -6213.7907    461.31551    -9985.949   -9116.7386    1648.5899    5846.4322    1219.0728    18.955292    18.955292    18.955292            0            0            0    2.1973199 
13600000    1643.4387   -43953.277   -640.54222    1404.3519    2726.2869   -6052.2655   -11773.269    7265.2943    10511.659    18.795859    18.795859    18.795859            0            0            0    2.2537106 
13700000    1638.5402    -43980.83    3824.8871    2316.7631    2587.0033    6570.8948   -6911.5169    2283.3694   -661.41958    18.782228    18.782228    18.782228            0            0            0    2.2586209 
13800000    1659.2707   -43963.589    4519.0117    12252.169     4465.512   -3160.6457    3796.5563   -3895.9711   -1117.7035    18.785921    18.785921    18.785921            0            0            0    2.2572892 
13900000    1558.6344   -43999.336    8899.6933    6812.5136     4796.364    15090.202    -3183.777    -1306.426   -2705.2974    18.851705    18.851705    18.851705            0            0            0     2.233741 
14000000    1551.7881   -44032.168   -8165.1595   -11619.733   -16402.321    3526.5762   -10821.196    2701.7924   -5172.3675     18.88628     18.88628     18.88628            0            0            0    2.2214953 
14100000    1575.5985   -44103.884   -1201.5733   -5469.2474   -3188.1503    5052.6777    -2519.581    1272.5534    1821.6092    18.856028    18.856028    18.856028            0            0            0     2.232205 
14200000    1511.2778   -44396.544   -5668.4781    7271.3848   -13761.708   -10515.111   -2766.0381   -3100.3092    1182.0804    18.842076    18.842076    18.842076            0            0            0    2.2371672 
14300000    1594.8681   -44037.459    1459.0448   -9142.8004    4797.9643    8721.9706    5013.6072    2953.2642   -5874.8244    18.910296    18.910296    18.910296            0            0            0    2.2130424 
14400000    1568.0141    -44171.55   -3508.6892   -9614.6682   -3305.3486    2393.9491   -7280.9952    11766.998   -1671.5152    18.925616    18.925616    18.925616            0            0            0    2.2076724 
14500000    1624.5649   -44341.062   -3807.1668   -2270.5796   -14039.529     4888.608   -1678.1008    2676.5185   -6117.5917    18.941846    18.941846    18.941846            0            0            0    2.2020026 
14600000    1563.1182   -44012.779   -8124.0275    4086.6779   -17080.118   -11378.643   -91.381535   -400.19647   -770.14544    18.803739    18.803739    18.803739            0            0            0    2.2508784 
14700000    1517.4873   -44343.763   -1264.2087   -5338.9765   -4188.9393    5735.2897   -2585.0364    11064.834    8206.9904    18.747025    18.747025    18.747025            0            0            0    2.2713686 
14800000    1536.5675   -44067.065     884.2129    8179.3447   -2762.3284   -2764.3776   -5851.1427    7035.8754    558.66698    18.803701    18.803701    18.803701            0            0            0     2.250892 
14900000    1621.6535   -44260.655    2409.4704   -2620.2471    8294.7557    1553.9027    3092.2861    979.84535    2277.2581    18.882004    18.882004    18.882004            0            0            0    2.2230052 
15000000     1521.923   -44396.949   -5538.6268   -7013.4128    -2549.573   -7052.8947   -1968.0624    4973.7347   -3007.3222    18.817358    18.817358    18.817358            0            0            0     2.245995 
15100000    1514.7681   -44193.401    126.90211    1197.8486   -8596.2563     7779.114   -1135.1736    2376.7569    -3390.373    18.824369    18.824369    18.824369            0            0            0    2.2434863 
15200000    1546.1414   -44476.868   -3779.2322   -5250.9583   -10567.412    4480.6738   -4176.4422    2179.1828    4283.8366    18.804656    18.804656    18.804656            0            0            0    2.2505492 
15300000    1482.0246   -44313.019   -1958.3824   -1060.8659   -3251.0106   -1563.2709   -8328.0932   -2423.0152   -4223.9451    18.838713    18.838713    18.838713            0            0            0    2.2383654 
15400000    1428.9597   -44339.681    -5016.261   -7677.7982   -1546.6595   -5824.3254    5426.0373    3145.1245   -1836.0533    18.871717    18.871717    18.871717            0            0            0    2.2266421 
15500000    1418.7159   -44398.068    9024.0831    13485.258    4297.9906    9289.0009   -731.45455   -3021.0534   -4808.9022    18.847305    18.847305    18.847305            0            0            0    2.2353056 
15600000    1323.1946   -44373.943   -4532.6567   -2144.7894   -2179.8098    -9273.371   -987.87772    1401.1126    1246.0251    18.835434    18.835434    18.835434            0            0            0    2.2395348 
15700000    1446.1172   -44538.746   -5872.8671   -2672.3318   -9286.8379   -5659.4317    1946.8607    -3708.362    -2964.285    18.852681    18.852681    18.852681            0            0            0     2.233394 
15800000    1456.3321   -44306.218   -9262.6639   -8368.0847   -12292.477     -7127.43    2007.3627    4829.8091   -4066.8978     18.92331     18.92331     18.92331            0            0            0    2.2084796 
15900000     1422.738   -44389.899   -1588.8059   -4415.1258    1382.6655   -1733.9574    911.39028    4052.2987    6210.4265    18.835081    18.835081    18.835081            0            0            0    2.2396607 
16000000    1358.9323   -44532.367   -93.270647   -4439.7532   -9962.1819    14122.123   -6853.8128    3818.8371    1115.5379    18.813212    18.813212    18.813212            0            0            0      2.24748 
16100000    1416.7369   -44434.212   -3836.9716   -9514.3962   -9756.9636    7760.4451   -4118.3303   -9396.1887    6974.9476    18.913586    18.913586    18.913586            0            0            0    2.2118876 
16200000    1396.3153   -44376.257    11642.488    11904.967    5774.1091    17248.387    5605.1033   -3586.5682    2388.6537    18.838954    18.838954    18.838954            0            0            0    2.2382795 
16300000    1390.0681   -44559.668    6353.7511    6213.9416    2238.7737    10608.538    -74.88905    3732.3927   -8845.9174     18.81849     18.81849     18.81849            0            0            0    2.2455895 
16400000    1414.0836   -44487.322    -459.3877    7002.4016   -8002.7717   -377.79293     -1410.69   -3604.3453   -1801.0316    18.826298    18.826298    18.826298            0            0            0    2.2427966 
16500000    1238.8597     -44598.9     5132.139     6048.119   -811.10791    10159.406    -1415.356   -7019.2836   -282.49124    18.746705    18.746705    18.746705            0            0            0    2.2714849 
16600000    1425.8076   -44530.171   -14414.832   -9672.2132   -18304.655   -15267.629    2694.4104    238.17797   -1166.6748     18.86772     18.86772     18.86772            0            0            0    2.2280578 
16700000    1325.6374   -44573.183   -6653.4334   -991.22155   -12717.323    -6251.756    7827.9943   -8928.6558   -775.83783    18.893217    18.893217    18.893217            0            0            0    2.2190493 
16800000    1276.3758   -44648.217    163.38167    9100.6802   -10333.221    1722.6856   -1087.2526   -187.28487   -1421.6745    18.892801    18.892801    18.892801            0            0            0    2.2191959 
16900000    1321.4213   -44636.089   -7365.6368   -1083.3879    -16768.98   -4244.5425   -1119.9194   -402.15959   -3410.7129    18.852979    18.852979    18.852979            0            0            0     2.233288 
17000000    1233.3138   -44620.957    732.53338    -3388.007   -8521.6415    14107.249    7144.9671    2239.2755    6784.3833    18.997313    18.997313    18.997313            0            0            0    2.1827709 
17100000     1370.628   -44530.674    3450.1197    15727.512    2043.1421   -7420.2953    143.41189   -3412.0316   -722.66206    18.813737    18.813737    18.813737            0            0            0     2.247292 
17200000    1297.1997   -44669.174   -913.28207    1550.4352   -16979.524    12689.242    3991.5622     809.4984    10591.052    18.817879    18.817879    18.817879            0            0            0    2.2458083 
17300000     1252.454   -44693.088   -5952.4282    3345.8164   -13073.032    -8130.069   -1694.0834   -480.43461    2415.6809    18.843719    18.843719    18.843719            0            0            0    2.2365821 
17400000    1342.0283   -44714.156    710.55995    3497.0033   -6851.8895     5486.566    -1509.878     2991.971    2733.5264    18.835417    18.835417    18.835417            0            0            0    2.2395408 
17500000    1195.9605   -44700.456   -2623.1616     519.9528   -6318.7843   -2070.6532   -3734.0506    5346.2005   -1637.6456    18.901335    18.901335    18.901335            0            0            0    2.2161914 
17600000    1240.2748   -44762.194    8174.4409     15062.54    952.57755     8508.205    7282.0122    588.04336   -4381.8119    18.803639    18.803639    18.803639            0            0            0    2.2509145 
17700000    1274.4467   -44704.053   -12159.103   -8987.1043   -14922.985   -12567.219   -2775.9586    7879.5906   -4227.6853    18.982028    18.982028    18.982028            0            0            0    2.1880481 
17800000    1204.3138   -44717.937    4202.0406    12915.165   -8397.4196     8088.376   -459.13406    1631.7567   -5101.2899     18.86433     18.86433     18.86433            0            0            0    2.2292592 
17900000    1257.0256   -44746.104   -962.76092    1439.9875   -5696.1416    1367.8714    3561.9294    2218.6034    163.62916    18.839422    18.839422    18.839422            0            0            0    2.2381127 
18000000    1295.0208   -44807.006   -1381.3552    697.86813   -8778.9975    3937.0638    2166.0206   -72.101853   -1530.7543    18.905728    18.905728    18.905728            0            0            0    2.2146468 
18100000    1169.2075   -44625.077    4863.5468    4504.5183   -77.151802    10163.274    1482.9075   -7867.8021   -1835.5672    18.816952    18.816952    18.816952            0            0            0    2.2461402 
18200000    1148.7463    -44688.32   -2195.0789    4026.0993   -2663.9599   -7947.3763    1977.9322    -2528.373   -1564.5633    18.860186    18.860186    18.860186            0            0            0    2.2307288 
18300000    1124.2419   -44748.975   -343.36552    3020.9894   -7821.4691    3770.3832   -4633.1986    7241.5026   -955.90351    18.871398    18.871398    18.871398            0            0            0    2.2267552 
18400000    1138.2956   -44721.714   -2453.6836    4864.4823   -12554.187    328.65334   -1653.8451   -7626.1963    6123.3533    18.787097    18.787097    18.787097            0            0            0    2.2568655 
18500000    1094.1787   -44877.331   -1655.0355    3872.4158   -6388.9145   -2448.6076   -719.43038   -3460.8298    2663.2498    18.781315    18.781315    18.781315            0            0            0    2.2589506 
18600000    1113.5604   -44855.842    8100.0579    11101.868   -4758.9801    17957.286   -1553.8904     750.3465   -6009.9188    18.800081    18.800081    18.800081            0            0            0    2.2521926 
18700000     1079.915   -44943.158   -2101.8522    774.42004   -9567.5481    2487.5716    4114.9502    1173.6351    2053.8734    18.858572    18.858572    18.858572            0            0            0    2.2313018 
18800000    1128.0278   -44828.188   -12795.411   -5520.0612   -18554.332   -14311.841    993.45664    2620.9537    2351.6336    18.816945    18.816945    18.816945            0            0            0    2.2461426 
18900000    1116.6028   -44956.879    4189.9817    12343.831    5490.0678   -5263.9536    8004.5169    2106.2814    4426.2862    18.770008    18.770008    18.770008            0            0            0    2.2630353 
19000000    1220.7435   -44902.841    6587.0002    12171.606    2499.4349    5089.9595   -2155.6494   -4137.6435    2796.8322    18.745198    18.745198    18.745198            0            0            0    2.2720329 
19100000    1019.4076   -45012.164    1034.3116    7937.9388   -7860.6695    3025.6655    3257.0482    5084.3177    1201.4112    18.813269    18.813269    18.813269            0            0            0    2.2474598 
19200000    1167.9309   -44982.689   -6356.1251    764.08432   -17434.486   -2397.9738    4530.2022   -2221.2116   -3285.4644    18.804883    18.804883    18.804883            0            0            0    2.2504677 
19300000    1032.9066    -45019.28     670.1104    6520.8591   -3447.7462   -1062.7818    26.608134   -5821.5935    1758.8192    18.880608    18.880608    18.880608            0            0            0    2.2234981 
19400000    1117.7773   -44880.266    405.88208    4014.9508   -6806.1096     4008.805      1038.78   -705.95144   -610.71417    18.792393    18.792393    18.792393            0            0            0     2.254958 
19500000    1063.8448   -45018.253    12498.817     20436.43    5193.6469    11866.374    4081.2928     2817.639   -211.08698    18.787446    18.787446    18.787446            0            0            0    2.2567398 
19600000    1012.8315   -44934.661   -4178.2886    6044.4989   -8941.5863   -9637.7784   -2043.7055   -237.27501    1857.3028    18.838789    18.838789    18.838789            0            0            0    2.2383385 
19700000    1026.0873   -45065.694    7149.4321    17353.781    3570.6072    523.90789    -1412.922    7997.3142   -3858.6013     18.77153     18.77153     18.77153            0            0            0    2.2624849 
19800000    1054.8845   -45064.229    5468.4838    11782.067   -1949.3757    6572.7604    1846.7029   -3346.9274   -1797.4322    18.779163    18.779163    18.779163            0            0            0    2.2597273 
19900000    1054.1437   -45091.069    8749.4119    9251.0287    7364.7075    9632.4996    2191.9107    2774.4185   -1341.0337    18.810063    18.810063    18.810063            0            0            0     2.248609 
20000000    1027.3369    -45075.29   -5116.5251     577.9496    -11924.75   -4002.7753   -2478.5593    2448.0551    2803.5071    18.863898    18.863898    18.863898            0            0            0    2.2294123 
20100000    974.09946   -45112.765   -1660.8465    6983.4149   -12248.544    282.58976   -3641.4401   -6569.0585    836.44209    18.860828    18.860828    18.860828            0            0            0    2.2305012 
20200000    999.07771   -45130.582   -3730.8963   -2388.2016   -10247.913    1443.4257    2279.4917     702.0728    5560.4346     18.76146     18.76146     18.76146            0            0            0    2.2661301 
20300000    976.98934   -45094.718   -5199.1674   -9991.0458   -6664.9279    1058.4715    3195.0865    -1198.261   -3489.9545    18.800856    18.800856    18.800856            0            0            0    2.2519143 
20400000    908.26927   -45150.783    1196.7545    6546.2433   -862.11691   -2093.8629    4649.4854    -1206.046   -3906.2969    18.793134    18.793134    18.793134            0            0            0    2.2546913 
20500000    944.76087   -45171.865   -321.30802    1728.0268    -1211.104   -1480.8468   -1123.0236   -3568.6827   -749.01684    18.760768    18.760768    18.760768            0            0            0    2.2663806 
20600000    935.21057   -45127.904   -3422.7251   -4364.4552   -12815.809    6912.0886   -7075.0328    5561.9612    -1983.927    18.835503    18.835503    18.835503            0            0            0    2.2395101 
20700000     906.9527   -45168.805    2167.6933     7078.972   -2706.4549    2130.5628   -2790.7036    1436.9244   -5216.9571    18.815726    18.815726    18.815726            0            0            0    2.2465792 
20800000    913.55496   -45145.621   -7899.0664    1570.7162   -18310.351   -6957.5647   -3245.9944   -1878.9748   -3200.6906    18.881424    18.881424    18.881424            0            0            0    2.2232098 
20900000    954.86504   -45225.592   -11133.019   -5700.4054   -15268.746   -12429.907    2941.4349   -1261.7835    3310.7415    18.840835    18.840835    18.840835            0            0            0    2.2376094 
21000000    902.35361   -45218.535    2468.7119    5167.0864   -4092.2811    6331.3304    1832.4689    1543.9706    4816.2092    18.831009    18.831009    18.831009            0            0            0     2.241114 
21100000    937.18788   -45215.231    6665.2649    12696.266   -3233.8549    10533.384     7182.619   -4773.8515    451.25948    18.801885    18.801885    18.801885            0            0            0    2.2515444 
21200000    876.15941    -45268.49    8163.0282    6911.0502    -1589.328    19167.362    2985.3865   -438.70086    2181.7955    18.782935    18.782935    18.782935            0            0            0     2.258366 
21300000    812.52649   -45281.292    8983.7021    20407.226    3135.0951    3408.7854    1793.4237   -272.38992   -4990.2523    18.772229    18.772229    18.772229            0            0            0    2.2622321 
21400000    847.66698   -45230.974   -1676.7212    9417.5216   -7171.4426   -7276.2426    4097.9593   -4985.6584     2972.343    18.813124    18.813124    18.813124            0            0            0    2.2475115 
21500000    852.19636   -45313.322   -10178.537    1298.0449   -19648.722   -12184.933    2859.6152    3155.1108   -1763.1792    18.818228    18.818228    18.818228            0            0            0    2.2456835 
21600000    880.36597   -45284.344   -315.78772   -458.18852   -3938.8198    3449.6451    1578.1163     2124.047     1010.876    18.782892    18.782892    18.782892            0            0            0    2.2583815 
21700000    808.55111   -45243.096   -9857.1999   -3508.3095   -16257.044   -9806.2466      3813.99    -3005.215    -215.4228    18.847266    18.847266    18.847266            0            0            0    2.2353195 
21800000    773.21063   -45218.547   -7672.0096   -682.10623   -12306.917   -10027.005   -1698.3707   -381.41414   -3629.5398    18.900296    18.900296    18.900296            0            0            0    2.2165568 
21900000    822.09573   -45367.913   -3022.3907     6723.646   -6532.1143   -9258.7039    5912.7063    4789.2405    2233.7461    18.771046    18.771046    18.771046            0            0            0    2.2626598 
22000000    786.96423    -45421.06    2108.4605    8069.3367    1802.8756   -3546.8307     3491.601    256.44306   -2642.6439    18.772296    18.772296    18.772296            0            0            0    2.2622081 
22100000    766.33945   -45319.599   -895.21693    5649.3072   -5407.2172   -2927.7408    3049.7492    -1741.989   -1777.0122    18.843901    18.843901    18.843901            0            0            0    2.2365171 
22200000    762.89562   -45407.545   -437.25778    5704.6459   -5395.0918   -1621.3274    1919.7264    4228.9378    4210.8142    18.828261    18.828261    18.828261            0            0            0    2.2420951 
22300000    736.05681   -45322.617    2712.7585    11670.875   -9517.9594    5985.3599    2019.1143    1668.0877   -2758.5849    18.797907    18.797907    18.797907            0            0            0    2.2529741 
22400000    790.75032   -45458.547     5751.057    9311.9887    1033.0526    6908.1297    6007.2832    1690.2016    328.51374    18.794935    18.794935    18.794935            0            0            0     2.254043 
22500000    757.77602    -45403.29    2802.8066    3088.0233    1445.3955    3875.0009   -4524.9605   -229.85145    71.701077    18.798621    18.798621    18.798621            0            0            0    2.2527175 
22600000     729.5984   -45451.379     1303.383    7125.3346    -3793.544    578.35846    1898.2571    753.35763   -2660.1924    18.814548    18.814548    18.814548            0            0            0    2.2470014 
22700000    718.22986   -45523.743    4180.5157    8744.8382   -3270.8698    7067.5788    28.939003   -1840.2894   -1871.6199    18.866854    18.866854    18.866854            0            0            0    2.2283646 
22800000    735.00098   -45501.805   -3506.7211    2213.6463    -10488.61   -2245.1998   -2085.6288     7392.466    3399.6988    18.835339    18.835339    18.835339            0            0            0    2.2395686 
22900000     702.7831   -45475.873    2446.1439    4376.3992     1046.416    1915.6165   -2348.1015   -2156.2465   -2044.9263    18.788047    18.788047    18.788047            0            0            0    2.2565232 
23000000    666.21054   -45521.319    7565.6932    9092.0068   -2759.2974     16364.37   -1827.4095    2322.3525     507.2225     18.72572     18.72572     18.72572            0            0            0    2.2791302 
23100000    656.78357   -45519.844   -5289.0509    -2080.915   -10281.839   -3504.3984   -1290.7198     1143.274    4645.1492    18.796172    18.796172    18.796172            0            0            0    2.2535982 
23200000     650.9282   -45577.897    1747.9991   -821.09718   -2123.6926    8188.7872   -1445.2651   -767.76343    6197.4749    18.820905    18.820905    18.820905            0            0            0    2.2447251 
23300000     683.1146    -45522.85    4729.2461    7750.4994    2142.9891    4294.2498    1396.5152    1085.8598   -2164.9634    18.733123    18.733123    18.733123            0            0            0    2.2764292 
23400000    654.51961   -45596.083   -4167.8728   -2206.1202   -6954.2689   -3343.2292    2708.7271    649.03339   -4979.9969    18.875712    18.875712    18.875712            0            0            0    2.2252287 
23500000    684.48176   -45571.762    158.38424    8133.2383   -3869.2327   -3788.8529    3496.5921   -6001.0565    2584.4124    18.773831    18.773831    18.773831            0            0            0    2.2616531 
23600000    631.64985   -45607.071    10589.731    9598.1092    10540.886    11630.199   -1864.4346    2494.0525   -2407.7932    18.784111    18.784111    18.784111            0            0            0     2.257942 
23700000    600.90949    -45595.18    2062.5962    10060.483   -220.79515   -3651.8989    104.31866    2779.3112   -969.14998    18.837358    18.837358    18.837358            0            0            0    2.2388488 
23800000    634.79223   -45611.337    3075.0115    8278.3135   -4546.8757    5493.5967   -3548.1551    816.85022   -2014.9737      18.8192      18.8192      18.8192            0            0            0    2.2453354 
23900000    613.53793   -45642.445    3343.4584    4921.2247     470.2261    4638.9243    3631.3485    2977.6371   -3725.4686    18.815142    18.815142    18.815142            0            0            0    2.2467885 
24000000    615.44717   -45589.529     3212.095    7463.8221   -6019.4413    8191.9044    -84.85477   -1318.2151   -4960.7618    18.782855    18.782855    18.782855            0            0            0    2.2583948 
24100000    598.08614   -45718.329    3793.3483    7049.4287   -952.40414    5283.0204     3545.841   -2140.0615   -307.68608    18.783406    18.783406    18.783406            0            0            0    2.2581961 
24200000     605.0003   -45658.285    4405.7135    9603.6613   -2115.3221    5728.8014   -751.70033     -1958.69   -710.86065    18.807147    18.807147    18.807147            0            0            0    2.2496551 
24300000    633.28997   -45737.791   -2970.3347    5073.3004   -6618.7677   -7365.5368    3043.6347   -2212.1247    1760.7895    18.820884    18.820884    18.820884            0            0            0    2.2447329 
24400000    566.36301   -45690.057    2090.5508    6987.7165   -6650.2034    5934.1391   -3566.3111   -675.58191   -93.287781    18.839215    18.839215    18.839215            0            0            0    2.2381868 
24500000     557.1591   -45712.786    4540.3816    8306.7375    1617.1309    3697.2764    2330.9409    1437.5311    854.02518    18.757033    18.757033    18.757033            0            0            0    2.2677347 
24600000    533.28875    -45766.21   -3857.7551    1756.8314   -11931.552   -1398.5446    4079.0226    5745.5193    1022.3602    18.800853    18.800853    18.800853            0            0            0    2.2519153 
24700000    544.09983    -45748.01   -880.90842    6488.5496   -9000.5655   -130.70939   -793.93659     1517.999    3031.6092    18.837841    18.837841    18.837841            0            0            0    2.2386763 
24800000    536.17833   -45717.632   -1201.4744    4463.1129   -5294.5743   -2772.9618    1034.2385   -1293.1076    566.93885    18.850886    18.850886    18.850886            0            0            0    2.2340321 
24900000    488.92491   -45816.594   -3504.6735    4314.8794   -9923.0829   -4905.8169   -1523.5968    478.56518     3705.508    18.812882    18.812882    18.812882            0            0            0    2.2475985 
25000000    512.07284    -45802.81    475.10487    5293.4563   -4112.5501    244.40836    7639.6943    2609.4816    4758.4993    18.799812    18.799812    18.799812            0            0            0    2.2522894 
25100000    470.60888    -45794.91   -1127.4914    394.06382   -8869.9813    5093.4434    1948.1446   -2113.6384   -1317.2924    18.803095    18.803095    18.803095            0            0            0    2.2511097 
25200000    476.55688   -45828.208   -7155.5264   -7679.4547   -9263.8486   -4523.2758   -2053.0589    2873.4821     549.7572    18.845732    18.845732    18.845732            0            0            0    2.2358656 
25300000    465.99288   -45856.279    11563.286    16333.363    10178.592     8177.903    1767.7319    1768.7254   -2483.1568    18.754166    18.754166    18.754166            0            0            0    2.2687749 
25400000    445.43629   -45870.819     2042.512    4015.3012   -458.75939    2570.9942    1411.3602   -2344.4126     64.83766    18.795228    18.795228    18.795228            0            0            0    2.2539376 
25500000    484.85958    -45845.06   -4777.4758    1038.8113   -9621.7153   -5749.5235    -1847.941    728.91458   -23.118594    18.811611    18.811611    18.811611            0            0            0    2.2480538 
25600000     434.2618   -45857.043   -2529.3371    618.79076   -11262.672    3055.8701   -719.98321   -1001.3578    421.85008    18.815701    18.815701    18.815701            0            0            0    2.2465884 
25700000    433.43149   -45886.791   -6438.3838   -3831.5771   -10983.552   -4500.0229    3706.0463   -347.53515    5093.4081     18.82416     18.82416     18.82416            0            0            0     2.243561 
25800000    414.57928   -45884.104   -1140.3982    12036.511   -9253.1494   -6204.5563    3755.4349   -2270.9217    4163.7737    18.816107    18.816107    18.816107            0            0            0    2.2464427 
25900000    400.24244   -45886.942      4759.64    15888.356   -4870.0158    3260.5797    4546.5339    -2128.544    3399.9673    18.784377    18.784377    18.784377            0            0            0     2.257846 
26000000    395.93546   -45937.136    993.14634    4528.1172    468.65693   -2017.3351    2374.2233   -2599.5495    1397.4614    18.755905    18.755905    18.755905            0            0            0    2.2681439 
26100000    407.17606    -45945.69    1753.0323    8529.6482   -6881.9148    3611.3636   -557.51177    675.06533    573.33374    18.807239    18.807239    18.807239            0            0            0    2.2496222 
26200000    382.76618   -45954.987   -465.13283    6088.2036    -13233.57    5749.9674   -1565.8422   -3804.1205     4918.468    18.785806    18.785806    18.785806            0            0            0    2.2573309 
26300000    370.56159    -45970.65    2966.1535     6091.171    -2389.406    5196.6954    1035.7014    1702.9403    3084.3469    18.791273    18.791273    18.791273            0            0            0    2.2553612 
26400000     364.9161   -46002.054    975.35299    4591.0035   -2401.7335    736.78897    1421.5195    3289.6935    782.42054    18.777961    18.777961    18.777961            0            0            0     2.260161 
26500000    327.39129   -46016.613   -5152.4861    961.68757   -13377.358   -3041.7882   -1853.6128     378.0542    4733.3045    18.773827    18.773827    18.773827            0            0            0    2.2616544 
26600000     311.4687   -45998.149   -354.52421    3494.7189   -1580.7507   -2977.5409    2353.5036    624.91069    991.60364    18.800517    18.800517    18.800517            0            0            0     2.252036 
26700000    336.32506   -46039.372    2543.8153     7560.751   -2332.3846    2403.0794   -965.56473   -3215.2272   -360.35124    18.779933    18.779933    18.779933            0            0            0     2.259449 
26800000      325.292   -46035.959   -2864.8446    2485.8537    -11373.02    292.63297    430.78992   -1618.3251    2251.2969    18.801562    18.801562    18.801562            0            0            0    2.2516604 
26900000     295.3799   -46054.116   -3336.7529    2420.2574   -10783.324   -1647.1918    968.15666    3104.8038   -909.81254    18.810713    18.810713    18.810713            0            0            0    2.2483759 
27000000    288.58169   -46077.005    2920.7755    11261.619   -2723.7724    224.48019   -413.53981    344.92285   -2449.9845    18.785132    18.785132    18.785132            0            0            0    2.2575737 
27100000    290.22416   -46073.557    5689.4745    8537.0349    644.01872    7887.3697    3420.5402   -2065.9436   -643.29373    18.767485    18.767485    18.767485            0            0            0     2.263948 
27200000     274.2426   -46085.826   -2156.7765    7154.3506   -10805.098   -2819.5824    742.08503    2820.5827    404.25533    18.831507    18.831507    18.831507            0            0            0    2.2409359 
27300000    277.21266   -46106.682    2018.4642    7937.5659   -8106.1053    6223.9319   -1828.6228    1965.3576    1701.3902    18.798409    18.798409    18.798409            0            0            0    2.2527938 
27400000    247.34314   -46106.151   -2250.0895    4044.2155   -7648.9644   -3145.5196   -650.06379    1354.5705    -1203.177    18.803062    18.803062    18.803062            0            0            0    2.2511216 
27500000    259.78075    -46139.48   -4163.0228   -785.62755   -13963.777    2260.3363    137.87493    246.07293   -616.91274    18.818045    18.818045    18.818045            0            0            0    2.2457487 
27600000    240.94277   -46144.879    -739.8824   -2062.4803   -6045.5814    5888.4145   -167.08513    1093.1091    518.40051    18.778661    18.778661    18.778661            0            0            0    2.2599082 
27700000    244.71747   -46161.137     3089.959    6786.8897   -1164.2314    3647.2188    1811.1053    780.30062   -1476.1344    18.793766    18.793766    18.793766            0            0            0    2.2544639 
27800000      227.163     -46173.2   -3980.3334   -782.48838   -9363.5219     -1794.99   -483.24373    2702.1474    3247.2976    18.798804    18.798804    18.798804            0            0            0    2.2526517 
27900000    214.63924   -46177.822   -4487.7772    -1727.386   -7695.3362   -4040.6094    259.10285    742.39639    25.648594    18.804057    18.804057    18.804057            0            0            0    2.2507642 
28000000      204.426   -46212.291    1084.6179    5858.3028   -8021.1553    5416.7063   -550.94209    5073.1749    183.48548    18.794894    18.794894    18.794894            0            0            0     2.254058 
28100000    195.68378    -46227.32    859.29608    5481.0735   -4181.5383     1278.353    345.32225    661.60204    524.17989    18.775516    18.775516    18.775516            0            0            0    2.2610444 
28200000    173.73171   -46231.566   -4238.1903    110.52068   -9104.2858   -3720.8058   -679.28167    711.89183   -925.16889    18.796173    18.796173    18.796173            0            0            0    2.2535979 
28300000    173.05916   -46247.933   -1468.5839     1824.241   -7136.8538     906.8612   -162.41545   -835.28021    2825.6342    18.788982    18.788982    18.788982            0            0            0    2.2561864 
28400000    154.08132   -46257.983    493.54294    3916.7782   -5906.9144     3470.765    2208.9002    1396.4548   -282.65259    18.777169    18.777169    18.777169            0            0            0     2.260447 
28500000    156.58722   -46287.648   -1273.5176    4259.8755   -7715.4345   -364.99362    1663.2653   -2733.9005    2175.4197    18.791353    18.791353    18.791353            0            0            0    2.2553323 
28600000    145.61714   -46276.539    1828.1809    5326.9487   -2642.9085    2800.5026    3370.8954     2520.939   -412.49779     18.77945     18.77945     18.77945            0            0            0    2.2596237 
28700000    133.41812   -46296.986   -1678.0208    765.83313   -5948.0038    148.10834    908.41571   -1195.7954    1140.7731    18.803854    18.803854    18.803854            0            0            0    2.2508372 
28800000    114.05443    -46315.65    380.86481    7091.2403   -6716.6751    768.02923    1051.0784    -1200.858    2123.3338    18.800175    18.800175    18.800175            0            0            0    2.2521588 
28900000    114.47189   -46329.776    2140.0855    5963.2209   -4932.5497    5389.5852    825.01962    1250.5368    335.79816    18.790295    18.790295    18.790295            0            0            0    2.2557133 
29000000    100.98687   -46333.064   -2224.9254    3303.1642   -9960.1776   -17.762754    3690.4789    881.68753    -713.8201     18.81807     18.81807     18.81807            0            0            0      2.24574 
29100000    88.632375    -46352.14    854.76026     6341.824   -4743.4725    965.92922    133.59453    1414.4752    1260.5906    18.787537    18.787537    18.787537            0            0            0    2.2567068 
29200000    81.729833   -46366.842   -2442.8496    684.41507   -7759.2223   -253.74172    2046.6253    1809.8624    1554.3279    18.811454    18.811454    18.811454            0            0            0    2.2481103 
29300000    69.843199   -46380.121    -1058.378    2710.3633   -7772.7203     1887.223    2513.2078    -2.919897    1199.9043    18.796657    18.796657    18.796657            0            0            0    2.2534237 
29400000    61.424127   -46389.814      684.607    5538.1033    -5445.809    1961.5266    955.51882    1318.2343    1387.2314    18.807664    18.807664    18.807664            0            0            0    2.2494694 
29500000    53.470485   -46411.592   -415.96666     3561.862   -5442.5145    632.75249    1040.1091   -712.39656     1288.931    18.784479    18.784479    18.784479            0            0            0     2.257809 
29600000    37.932821   -46420.709    332.68316    2555.6063   -4798.1456    3240.5887    1155.3936    1384.1065    244.84064    18.788792    18.788792    18.788792            0            0            0    2.2562546 
29700000    30.850441   -46437.608     44.68299    3778.2606   -6064.3349    2420.1233    658.92467    243.92655    436.16409    18.780469    18.780469    18.780469            0            0            0    2.2592557 
29800000    19.596285   -46446.795    181.32831    4375.4274   -5970.1215     2138.679    724.12022    764.40371    1230.0575    18.780006    18.780006    18.780006            0            0            0    2.2594228 
29900000    9.9152735   -46462.659    -573.5484    4244.9192   -6985.2622    1019.6978    407.90337    1079.2393    1367.5748    18.782962    18.782962    18.782962            0            0            0    2.2583562 
30000000  0.025819221   -46475.396    23.548597    4410.1305   -6076.9522    1737.4676    762.93007    663.76465    1106.5239    18.781595    18.781595    18.781595            0            0            0    2.2588493 
Loop time of 3666.56 on 24 procs for 30000000 steps with 450 atoms

Performance: 706.930 ns/day, 0.034 hours/ns, 8182.065 timesteps/s
99.0% CPU use with 24 MPI tasks x 1 OpenMP threads

MPI task timing breakdown:
Section |  min time  |  avg time  |  max time  |%varavg| %total
---------------------------------------------------------------
Pair    | 692.57     | 830.68     | 1009.8     | 263.3 | 22.66
Neigh   | 43.079     | 47.365     | 52.399     |  34.8 |  1.29
Comm    | 1914.3     | 2082.1     | 2212.2     | 157.4 | 56.79
Output  | 0.04914    | 0.049292   | 0.051041   |   0.2 |  0.00
Modify  | 569.12     | 597.38     | 624.61     |  60.2 | 16.29
Other   |            | 109        |            |       |  2.97

Nlocal:        18.7500 ave          23 max          12 min
Histogram: 1 0 1 0 3 4 6 6 1 2
Nghost:        1280.96 ave        1311 max        1256 min
Histogram: 2 0 6 5 3 1 0 2 3 2
Neighs:        2659.08 ave        3536 max        1669 min
Histogram: 1 1 1 2 6 3 5 3 1 1

Total # of neighbors = 63818
Ave neighs/atom = 141.81778
Neighbor list builds = 691604
Dangerous builds = 0
unfix            1

#fix             1 all nve
#fix             2 all temp/rescale 10 1 2000 1 1
#run             1000
#unfix           1
#unfix           2

write_data      end.dat
System init for write_data ...

Total wall time: 1:01:06
