ITEM: TIMESTEP
0
ITEM: NUMBER OF ATOMS
450
ITEM: BOX BOUNDS pp pp pp
-4.2652611239610749e-01 1.9151951262545488e+01
-4.2652611239610749e-01 1.9151951262545488e+01
-4.2652611239610749e-01 1.9151951262545488e+01
ITEM: ATOMS id type x y z
170 2 3.21531 2.54185 3.45592
120 1 2.41706 3.00973 1.71828
272 2 2.00718 4.53427 1.66938
134 1 3.60886 5.33672 1.88069
242 2 0.686939 2.26686 1.51089
234 2 3.13643 1.78436 0.921638
276 2 7.5544 0.962609 4.27414
177 2 4.60685 4.13886 1.94183
247 2 6.96697 3.34702 2.3363
118 1 5.50571 2.48997 1.51405
200 2 5.97557 0.55312 1.72292
28 1 2.07198 0.531271 0.388655
113 1 8.92963 3.87456 2.02054
214 2 5.6271 3.03808 -0.0414715
78 1 3.31272 2.87467 5.15832
379 2 5.71262 1.73738 6.0447
252 2 2.52733 3.21266 6.6283
203 2 3.59137 4.61533 4.68854
95 1 9.10986 -0.154312 7.80063
57 1 6.8302 0.377182 5.69349
403 2 8.72835 0.589133 6.49627
133 1 1.40164 3.69316 7.78108
257 2 4.79461 5.8076 7.0217
268 2 6.22465 0.217858 7.44595
319 2 8.34105 4.03948 5.33803
73 1 8.44591 5.54645 5.89834
260 2 9.1588 5.49936 7.48681
256 2 -0.293173 1.2885 5.99441
303 2 -0.116699 3.65161 7.41093
92 1 3.80276 6.05738 5.69363
17 1 4.87369 -0.178569 8.18626
347 2 6.9651 5.26924 9.10533
438 2 9.11856 0.979293 8.87058
248 2 1.29773 2.23268 8.6004
149 1 8.90315 5.54597 9.16091
213 2 3.1409 0.393011 8.46094
394 2 1.65644 4.72182 9.06389
123 1 5.17786 5.2569 8.93188
230 2 4.849 3.6826 9.2633
218 2 5.13574 1.80565 12.0252
418 2 3.3557 1.99627 10.1132
77 1 5.10486 2.25145 10.464
39 1 5.4563 0.664962 13.1427
94 1 2.47556 4.96258 13.7961
407 2 1.85825 4.73071 12.24
23 1 1.381 5.82831 10.4537
116 1 8.39458 5.45639 13.5748
75 1 8.48161 -0.0718265 13.6973
369 2 6.80508 4.75433 14.1838
397 2 9.34765 4.6469 12.443
209 2 7.13668 0.632641 12.5827
367 2 5.53954 0.801307 9.64436
389 2 0.340443 2.02566 12.9004
69 1 2.11786 1.02405 9.49377
449 2 -0.113319 5.93621 10.6981
305 2 1.00731 0.782851 10.5508
330 2 4.29411 4.7003 14.1814
107 1 0.683514 0.649939 12.1131
395 2 3.64917 3.95271 17.6655
100 1 2.45364 3.20321 16.6793
24 1 4.96559 5.29093 17.8012
168 2 4.23513 1.68306 17.3502
83 1 4.73498 0.489098 16.372
304 2 2.33937 3.72018 14.9985
59 1 0.100267 5.0476 17.143
406 2 1.34771 1.93693 16.9727
159 2 1.46997 6.04688 17.4848
415 2 5.10349 1.25866 14.9147
306 2 -0.31559 4.354 15.0676
15 1 0.10489 2.28306 18.0735
404 2 1.17107 3.81346 17.9443
285 2 6.32346 4.10018 17.4051
355 2 8.64578 0.336362 15.2582
31 1 5.45869 5.36566 15.1614
147 1 8.21285 0.842822 16.8271
311 2 6.93734 1.73065 17.43
295 2 0.741009 0.848118 18.8986
27 1 5.46625 2.80227 17.934
300 2 3.84689 5.99611 16.7272
178 2 9.27181 5.57576 15.1947
341 2 3.07955 6.68493 2.1874
40 1 2.07045 7.968 1.8787
359 2 0.36796 8.32545 2.45292
350 2 3.16133 9.24078 1.69679
68 1 0.888238 12.4409 2.9783
387 2 0.845886 12.1046 1.32384
3 1 3.85548 9.79908 0.322053
250 2 6.52641 7.73583 1.3441
383 2 1.80824 7.4633 0.405929
244 2 5.24486 10.7104 0.402855
154 2 6.99661 8.78807 3.69517
131 1 6.426 11.7187 1.07232
152 2 7.21918 10.4731 1.73081
191 2 8.88958 7.78804 2.51568
136 1 7.50778 8.64725 2.22036
401 2 -0.409527 11.5769 3.30061
335 2 4.07256 6.11627 -0.154296
117 1 1.29016 12.2229 -0.39105
282 2 2.7297 10.9498 -0.330311
253 2 3.21427 10.7071 8.66178
364 2 2.21627 8.90006 6.86668
316 2 2.36169 6.56987 6.60182
328 2 4.57507 7.57113 5.25084
365 2 -0.337426 7.89687 5.71282
216 2 5.17568 10.3564 7.13609
72 1 3.34835 10.1116 7.21139
382 2 0.568873 12.3538 7.53524
357 2 0.335988 7.2947 7.70596
87 1 1.19721 7.84676 6.50745
14 1 3.60904 12.0748 4.8256
157 2 3.70233 10.3295 5.30758
251 2 7.31538 11.983 7.54965
363 2 6.75499 6.65816 5.36367
186 2 6.92679 9.0617 6.45791
10 1 6.18428 8.0723 5.19723
102 1 6.62495 10.2268 7.69623
421 2 9.22963 6.28533 4.87702
346 2 1.00229 11.6947 5.18514
262 2 5.11649 12.4724 4.50316
324 2 6.58103 9.66027 9.15045
184 2 8.04967 6.96816 12.925
288 2 4.83774 11.4069 11.1855
344 2 4.7072 6.53896 9.80594
416 2 2.27604 7.05437 11.1257
386 2 4.72839 8.81556 11.2392
298 2 2.28819 6.54248 13.5175
146 1 0.456196 9.9855 14.1386
105 1 3.90991 7.49068 10.9857
378 2 0.351512 11.0932 13.1324
235 2 5.17897 10.599 13.6691
37 1 5.92491 10.0153 11.3567
436 2 6.96643 9.22384 12.3337
21 1 8.16954 8.56131 12.981
245 2 7.38003 11.9179 11.7165
56 1 8.01797 12.5236 13.1616
280 2 6.0584 6.50867 17.6017
419 2 3.62684 8.5738 18.7518
302 2 6.00433 6.78944 14.9786
66 1 2.46648 6.35312 18.8729
249 2 0.0349996 10.8145 15.4685
231 2 0.971762 9.01683 16.9254
96 1 4.35691 10.7103 15.1529
148 1 5.83355 8.29352 16.8748
114 1 0.0547128 10.2594 17.031
413 2 4.74502 9.08836 15.7408
373 2 0.266586 11.4857 18.229
271 2 7.29736 9.04316 17.345
125 1 8.40503 9.44631 16.3255
212 2 8.06877 8.89637 14.8229
278 2 8.67647 11.0124 16.831
377 2 9.05136 6.10927 17.7972
195 2 3.36177 11.9723 14.9316
180 2 5.52077 11.3981 16.661
160 2 8.08655 12.0901 14.6099
2 1 9.17169 12.3673 15.816
53 1 7.27506 19.0926 2.54259
439 2 8.70803 18.9421 1.59932
182 2 6.55759 18.5163 3.80626
4 1 8.60593 17.7936 0.159421
294 2 6.38223 12.9601 2.32984
396 2 2.64785 12.626 3.38892
161 2 7.51598 14.8531 0.0616946
299 2 2.30336 15.9347 1.89697
85 1 6.35081 13.2831 3.92579
358 2 5.30167 16.2189 0.967618
314 2 0.548315 14.2878 2.86031
399 2 1.70389 16.3314 4.32642
417 2 4.43614 16.968 3.27084
446 2 -0.000503714 16.8512 2.32371
130 1 3.83602 16.3047 1.76631
41 1 1.01357 15.7892 3.00163
143 1 5.73765 16.6087 4.21617
217 2 5.69028 14.8921 3.87185
111 1 9.12949 14.9609 -0.0601703
374 2 2.88224 18.7157 0.640646
54 1 -0.156322 12.6646 6.00615
109 1 8.01812 16.3675 8.90589
127 1 5.36008 16.0083 7.76397
63 1 2.09593 17.6381 5.42732
441 2 4.97956 17.5574 8.43177
360 2 4.99275 16.0365 6.14747
239 2 3.78992 15.1021 7.83369
219 2 3.65707 18.7622 5.28115
291 2 0.590012 18.3701 5.33501
128 1 3.60337 13.6131 7.7952
190 2 2.10245 17.1393 6.86275
265 2 2.95538 12.7879 6.41467
322 2 4.31221 12.9892 9.03846
292 2 0.451582 19.005 8.18571
124 1 1.33296 17.5217 8.38926
447 2 7.46577 12.659 5.01136
43 1 8.09796 13.0154 6.51827
390 2 0.219039 16.1291 8.22395
166 2 7.49884 16.4549 4.78079
356 2 7.94678 14.6885 6.54632
42 1 8.96082 15.6154 5.3159
196 2 6.59793 15.2732 8.74814
269 2 8.65185 17.6172 8.10766
98 1 4.9004 12.8949 10.7514
211 2 -0.040983 16.887 10.9031
315 2 -0.0306212 16.2137 12.9664
323 2 2.34393 16.6297 9.43343
175 2 -0.355262 13.5997 12.7453
151 2 4.56489 18.8827 13.3768
227 2 3.10015 16.5428 11.8479
258 2 1.54401 14.7341 12.2692
393 2 4.8977 14.0448 12.1381
140 1 3.72681 17.34 13.1235
112 1 0.306894 14.7056 13.3913
193 2 7.39402 17.9987 13.6506
201 2 6.72706 13.4993 13.4294
36 1 5.48786 14.6239 13.6775
199 2 7.69898 16.4672 10.7041
361 2 6.2918 15.9969 13.6991
273 2 8.95602 16.0907 13.3562
67 1 7.6911 16.4856 12.4737
172 2 -0.188938 18.9084 12.3254
51 1 1.43206 16.118 11.109
435 2 -0.35578 16.6167 18.8488
345 2 4.76181 14.8153 18.2237
425 2 7.98168 19.032 17.3935
307 2 2.01303 13.7118 18.9242
336 2 6.57079 16.7708 17.8485
450 2 4.08005 14.9463 14.7772
204 2 3.48628 19.1228 16.2658
169 2 3.74883 16.7482 16.6221
422 2 1.40261 13.9643 14.5039
65 1 3.23602 15.3719 17.7766
240 2 2.94982 17.1426 14.4796
208 2 2.85587 13.9679 16.6478
9 1 2.71056 17.8041 16.0066
171 2 1.95114 16.8818 17.66
11 1 3.05412 13.4979 15.1206
48 1 0.176207 17.4573 17.5877
156 2 6.17576 18.8828 15.8097
210 2 8.19965 16.6365 15.8079
326 2 9.0522 14.2318 15.5829
129 1 7.45789 17.9917 16.1571
431 2 0.76546 18.1673 16.1055
115 1 6.02909 15.7979 19.1466
443 2 9.92266 0.0196195 4.23281
238 2 9.50122 2.6672 2.92935
402 2 9.58285 4.35496 0.445222
38 1 14.6923 0.469877 -0.264399
135 1 11.3448 0.322049 0.969176
297 2 13.1925 -0.130983 0.666617
5 1 18.9451 1.94738 2.55431
119 1 16.5146 2.32091 1.26312
409 2 16.3106 5.59412 2.96647
139 1 18.0744 4.79887 3.79847
277 2 15.9042 1.99046 3.14187
165 2 17.8936 1.6703 1.534
432 2 13.3562 3.59662 3.76378
47 1 14.2509 2.08816 3.52905
400 2 13.5079 0.593896 4.13252
354 2 18.752 3.60799 2.86562
308 2 18.9884 0.248459 2.76863
185 2 9.51883 5.25828 2.77467
434 2 16.9888 4.10813 0.144867
192 2 15.0569 1.79934 0.507806
215 2 13.7538 2.93243 6.76591
74 1 12.0136 3.74968 5.99529
339 2 11.0702 2.55093 5.43593
108 1 9.40126 1.62993 4.64654
290 2 11.6971 5.38219 6.08957
414 2 16.6532 2.89639 6.13395
348 2 18.3816 4.33577 5.40033
137 1 18.3994 2.68748 6.23111
84 1 15.4533 2.89429 7.07632
264 2 15.6246 1.35153 7.64163
342 2 17.6695 5.96222 7.61878
34 1 16.2367 -0.325579 8.05309
44 1 19.0732 -0.263353 6.62734
405 2 15.4029 3.67959 8.80794
202 2 9.88317 0.0698252 12.7016
46 1 10.1206 3.7323 10.9847
183 2 10.052 4.28692 9.5928
228 2 12.0136 4.33222 11.3504
79 1 18.7042 3.18318 14.0156
301 2 16.8998 5.09032 10.7009
188 2 18.5951 3.86877 12.339
101 1 18.1703 5.37828 11.5239
97 1 12.0349 3.29002 12.6377
366 2 13.0606 2.63646 13.6566
220 2 10.5788 2.7545 12.059
104 1 11.049 -0.324243 11.7637
229 2 11.5836 0.966213 10.9482
376 2 14.2175 0.434597 13.2365
71 1 15.9115 5.40649 9.41016
52 1 13.3083 5.36444 19.0182
173 2 12.7336 3.60831 16.1863
254 2 11.3667 1.66732 18.0659
430 2 18.1575 2.01596 17.7503
145 1 14.0145 4.12412 15.4357
241 2 14.7592 2.47993 15.809
237 2 13.5889 3.61851 18.6613
16 1 16.9718 0.372171 15.4677
261 2 17.6015 2.24904 14.9522
58 1 12.8519 2.60789 17.4432
362 2 15.3672 5.01096 15.2783
194 2 15.3603 0.122591 14.9479
296 2 18.116 5.64316 17.7241
30 1 16.6732 5.80991 18.7373
144 1 14.1037 1.54962 14.6577
121 1 10.0276 4.86526 18.5216
279 2 11.5225 5.54872 18.81
205 2 10.3072 3.54366 17.3197
329 2 13.0202 4.90497 14.2604
340 2 11.351 0.866868 15.9697
142 1 11.9212 0.336578 17.3556
370 2 13.3464 1.00894 17.8999
428 2 14.0713 5.72868 17.4858
179 2 10.5502 -0.256868 18.9936
232 2 14.5098 9.05723 0.370615
338 2 18.9813 6.43103 3.74172
61 1 18.6664 7.98374 3.46289
164 2 16.3481 11.1366 2.99819
49 1 9.98854 6.63413 3.36185
380 2 11.5659 6.93987 2.58474
321 2 13.4519 6.94843 0.117134
132 1 15.8968 7.00894 3.83805
86 1 12.7592 7.96774 3.3783
22 1 17.4226 10.6462 4.35394
332 2 16.8496 7.96666 2.73402
440 2 14.4056 7.2695 3.19052
197 2 13.2437 9.8104 3.05835
1 1 14.5239 10.9914 3.37311
198 2 16.3541 7.23381 -0.201324
226 2 11.6602 11.1249 7.02811
448 2 17.9159 9.16895 4.49134
327 2 11.293 7.67858 7.68065
313 2 15.8708 6.95075 5.55918
91 1 11.9968 6.98524 6.17552
284 2 17.1555 8.46068 7.05648
6 1 18.1188 7.29898 6.74471
221 2 11.8882 7.91501 4.82763
150 1 15.1567 7.63715 7.02871
333 2 17.8198 11.7706 5.70192
155 2 13.6218 6.841 6.45176
442 2 13.848 10.8059 5.38587
427 2 14.4676 9.21718 7.04816
349 2 17.5496 11.8514 8.44308
19 1 13.5347 10.5206 6.99889
437 2 14.1915 11.9182 7.8822
223 2 15.2502 6.75534 8.63059
93 1 10.586 8.10573 8.97098
320 2 9.46702 7.21019 9.41205
412 2 19.0849 12.2839 10.3406
286 2 18.9546 8.85795 13.6945
263 2 9.85353 9.02643 12.4153
411 2 11.2142 9.20398 10.0369
106 1 11.3743 9.65129 11.6842
233 2 12.3125 7.00205 13.0345
445 2 12.7294 9.58894 12.4802
70 1 18.7856 12.1008 12.1571
167 2 15.09 11.1461 11.6686
246 2 14.8661 12.4686 13.2459
81 1 17.1912 7.91568 13.4569
289 2 17.5854 6.66185 12.4446
266 2 16.1195 8.76883 12.3748
26 1 16.3987 10.0435 11.4197
158 2 17.558 11.3153 11.8302
60 1 14.4295 12.5737 11.5833
243 2 12.3339 12.2991 11.1985
408 2 16.7224 8.99963 10.1069
141 1 9.79596 6.62918 16.2008
444 2 9.43302 8.08977 16.5768
423 2 11.4852 6.55667 15.6364
353 2 10.7317 12.2073 15.5895
32 1 12.8708 6.555 14.5091
207 2 15.9841 8.55997 17.1547
287 2 16.6938 7.39971 14.8873
429 2 14.2835 7.40511 15.1822
25 1 15.5324 8.08643 15.7614
318 2 15.2671 9.86086 15.1691
126 1 15.1411 11.3973 14.5174
189 2 13.9137 12.0725 15.3186
110 1 15.6381 8.58125 18.7807
174 2 16.5488 12.3094 14.9644
255 2 17.4821 17.7713 0.94719
236 2 11.8974 18.4383 2.24995
372 2 9.50479 16.3397 0.3611
420 2 13.6605 16.7027 -0.0446945
368 2 14.2002 17.8522 3.33651
371 2 14.1198 12.6496 2.96676
381 2 17.6221 14.4597 0.646225
12 1 15.3013 13.9148 2.27091
8 1 15.5659 17.0441 3.97978
18 1 12.8148 18.5665 3.71987
283 2 17.0724 17.6348 3.30162
206 2 10.9794 14.1395 1.34686
293 2 12.3384 15.4863 2.96488
64 1 18.4858 18.0571 2.65612
337 2 9.73146 14.8372 4.20369
62 1 11.0152 14.7326 2.76833
424 2 15.2014 15.5301 3.0582
187 2 14.09 14.4493 1.22391
76 1 13.3089 16.0256 1.62901
309 2 14.7073 15.0496 7.6287
433 2 18.205 14.1476 8.52622
312 2 19.1218 14.2013 6.10028
391 2 12.1116 13.9934 5.71713
388 2 9.78746 12.9624 7.04479
7 1 11.6557 12.7887 6.90213
281 2 9.5887 15.6001 8.71874
343 2 16.9014 16.2498 6.85934
138 1 18.836 12.6811 8.88047
352 2 14.631 16.888 5.50105
82 1 15.1445 16.5907 6.94421
259 2 15.0181 18.1435 7.55012
153 2 12.0488 13.4992 8.37118
426 2 11.6932 16.2038 7.57736
275 2 9.99987 16.9945 5.81883
331 2 17.4669 18.9336 7.02684
225 2 12.2339 17.9577 5.01735
99 1 11.6862 17.1503 6.40496
122 1 18.2795 15.1948 7.20607
20 1 14.0921 13.7331 8.59528
35 1 10.7992 14.4865 8.84405
267 2 14.3388 13.7441 10.4047
45 1 18.5087 17.4328 12.1989
317 2 12.0916 17.9746 12.4081
310 2 16.5487 19.04 9.66028
89 1 10.9784 13.2519 12.1484
176 2 9.44059 12.8886 12.7148
351 2 11.8348 12.9439 13.4432
80 1 13.5749 18.3749 12.7901
392 2 10.643 14.238 10.6057
375 2 14.3157 17.7971 11.1097
224 2 16.8797 17.0033 11.8523
88 1 15.9452 17.8758 10.8572
410 2 13.5264 17.07 13.8907
29 1 17.584 15.5141 18.9515
398 2 13.041 18.4808 17.5326
274 2 16.282 16.6567 18.2103
162 2 18.2953 15.067 14.5846
90 1 12.4232 13.0199 14.9956
270 2 15.8514 14.8235 15.0999
13 1 17.2213 14.713 15.666
222 2 14.43 16.3934 16.6704
163 2 17.4359 18.6189 14.5588
334 2 17.8106 14.6082 17.5101
181 2 10.4823 16.8019 15.2876
55 1 9.43835 15.737 14.8684
325 2 12.9121 14.5845 15.1038
385 2 18.1532 18.1227 17.1018
33 1 14.2437 15.9506 15.0217
384 2 15.5903 19.0788 17.8222
50 1 13.9774 17.1781 17.9179
103 1 16.9775 18.1649 18.2615
ITEM: TIMESTEP
100000
ITEM: NUMBER OF ATOMS
450
ITEM: BOX BOUNDS pp pp pp
-2.7975854484875740e-01 1.9005183694998586e+01
-2.7975854484875740e-01 1.9005183694998586e+01
-2.7975854484875740e-01 1.9005183694998586e+01
ITEM: ATOMS id type x y z
352 2 0.934354 5.62538 1.12664
306 2 1.84419 2.5849 1.18848
438 2 7.1811 0.250999 2.86571
66 1 5.58085 4.80185 4.34109
195 2 7.9938 2.98806 1.52492
294 2 1.72891 4.26607 3.38233
91 1 8.13026 3.49859 3.06319
265 2 6.68648 4.40386 3.02226
60 1 2.19758 4.51458 1.81376
315 2 5.1507 0.680497 4.28023
134 1 6.75883 4.10841 1.05537
419 2 5.15158 3.71715 0.870846
361 2 7.02884 5.70366 1.30366
171 2 4.78376 3.50734 4.17608
191 2 9.29733 4.44226 3.71883
196 2 4.32173 5.99888 4.04519
379 2 1.25908 -0.0537789 4.16321
144 1 5.64173 0.00913279 2.73621
248 2 7.61799 2.17498 4.33888
401 2 3.02623 5.41671 -0.126017
334 2 3.11316 0.18227 7.18363
418 2 4.61759 2.70246 6.78791
320 2 6.1101 5.47969 5.88979
68 1 8.95458 3.71608 7.21246
79 1 2.14788 0.151563 5.74051
45 1 7.99934 0.562143 4.25904
439 2 2.14086 3.49336 8.91516
9 1 4.13263 -0.0914873 8.31498
280 2 5.84256 0.156052 7.73408
55 1 1.26682 4.62343 7.6723
117 1 3.94248 2.68626 9.28145
448 2 0.940386 3.74859 6.16187
165 2 0.639578 0.546911 6.37359
148 1 0.817991 3.40035 4.64626
434 2 7.58726 2.76229 7.67242
95 1 4.63404 1.94758 4.90766
49 1 7.02538 2.25533 9.18917
159 2 2.75256 1.6661 5.05661
345 2 8.2243 0.497589 6.30616
407 2 0.519958 5.41793 8.72684
286 2 2.55136 6.11751 6.9844
360 2 5.56048 1.683 9.38305
309 2 9.38496 5.26698 7.23289
351 2 4.0232 3.69149 10.4995
115 1 8.18417 4.03565 11.8626
197 2 8.43706 5.15416 13.1812
370 2 1.04263 0.104837 9.97617
260 2 3.61489 5.0631 12.9947
83 1 0.481216 5.72964 10.5199
292 2 9.61213 0.659287 12.1064
90 1 0.504435 1.16193 11.1736
39 1 8.97637 -0.199647 10.8053
413 2 7.41668 3.3443 10.2983
24 1 9.55405 0.799505 13.5855
281 2 2.0545 5.26143 11.163
386 2 1.44142 2.45057 11.2275
435 2 5.24272 2.08289 13.3654
141 1 3.5318 5.05782 11.3018
359 2 8.54657 2.76152 12.8556
224 2 0.136208 0.417955 12.9287
214 2 -0.14942 4.49565 11.0673
254 2 4.56586 6.0042 10.4981
391 2 8.316 0.994414 9.72766
331 2 3.45564 0.831341 9.66995
269 2 6.888 4.27684 15.5693
16 1 6.93094 3.6401 17.0012
106 1 -0.0802881 2.76836 17.9713
102 1 2.90331 5.24205 14.5512
227 2 1.34895 4.5024 14.8023
150 1 4.4833 2.86677 16.5941
356 2 6.27359 2.17083 16.9269
415 2 1.53057 2.10292 17.7913
127 1 -0.0380961 3.97854 14.7276
362 2 3.95742 4.1931 15.7206
176 2 8.77634 1.06135 18.0166
130 1 8.41476 4.99833 14.7237
242 2 8.2968 4.31638 17.7419
406 2 0.321663 2.20541 14.5841
175 2 9.18598 3.52102 15.5101
374 2 3.78081 2.5856 17.9485
253 2 7.15546 0.599257 14.7161
110 1 5.58754 0.671735 14.3474
392 2 1.89682 0.311052 14.8298
376 2 5.63684 5.05597 18.0252
107 1 2.65364 2.40402 19.1948
89 1 0.138954 0.579961 14.447
186 2 8.60741 11.4714 2.07966
431 2 8.78776 6.85605 3.33188
212 2 3.61568 11.9834 3.96233
427 2 2.97458 11.4597 1.58895
279 2 6.37889 8.3714 2.79965
64 1 7.19195 11.4546 3.41574
105 1 4.50307 12.1025 1.72295
441 2 5.22962 10.1407 1.19739
287 2 8.0384 10.1525 3.76334
59 1 5.38327 8.56565 1.6083
145 1 7.54788 8.31381 3.87981
23 1 1.62325 11.8559 0.859996
219 2 3.63475 8.65957 2.4181
295 2 0.621349 7.58271 2.78164
348 2 5.40714 7.76572 -0.0658831
18 1 0.210136 8.24896 4.28533
244 2 7.76371 12.6668 4.62498
234 2 6.03189 11.5598 2.28415
14 1 3.2379 7.16881 4.13887
54 1 0.389406 7.13551 1.35544
220 2 1.18815 7.88379 0.118041
56 1 9.43929 7.03541 7.54021
267 2 6.48227 10.3245 8.59004
299 2 6.74175 8.1368 5.33894
305 2 5.12711 12.3634 6.55821
10 1 5.15681 11.4525 8.10254
78 1 0.524805 9.9635 7.24059
35 1 6.42102 6.89846 6.52549
208 2 8.00826 7.31495 7.0174
99 1 3.51518 8.3799 7.67311
216 2 3.82695 10.4526 7.78635
173 2 1.90853 9.03802 7.50669
354 2 0.998464 11.1998 8.16612
450 2 0.77048 9.64058 5.36298
238 2 4.88792 7.60068 6.98736
378 2 2.09361 8.09403 4.83452
1 1 0.433722 11.246 13.3072
389 2 1.76346 12.0243 13.5821
30 1 1.05242 8.64666 11.4214
264 2 5.75734 11.5338 13.8991
163 2 0.0374955 7.35518 10.6694
277 2 3.26413 12.4711 11.267
405 2 2.24651 7.71175 11.6567
38 1 4.47244 7.58671 10.8451
156 2 3.52345 8.24657 9.24787
368 2 0.513536 9.94704 12.2833
332 2 4.80065 8.81017 12.5359
41 1 5.30959 9.52547 14.034
328 2 8.40363 10.9341 12.6532
271 2 6.62876 8.22893 14.0861
400 2 8.33674 10.9637 18.5537
423 2 1.97616 8.81035 14.461
218 2 8.12624 11.6657 15.787
252 2 2.74702 6.99033 17.1883
204 2 3.12961 9.61203 17.9352
336 2 4.46831 9.83592 15.3208
161 2 0.590897 8.88279 16.9278
283 2 5.65295 7.03208 16.1663
169 2 1.89002 11.1577 16.7188
27 1 7.07902 7.62148 15.4916
29 1 8.27139 10.4103 16.8842
12 1 3.56936 10.5994 16.5819
300 2 7.37439 9.09565 16.2324
132 1 0.281948 9.15829 15.3148
228 2 8.36516 6.56199 15.1913
88 1 1.35138 9.30761 18.339
2 1 3.25973 7.99366 16.0124
58 1 4.59661 6.26857 18.6955
15 1 0.928995 12.3983 17.4762
422 2 3.77471 12.2964 17.3412
250 2 1.41426 10.6342 19.1516
408 2 3.42646 6.7113 15.0916
369 2 -0.0553553 10.649 14.8567
47 1 3.28761 17.1715 1.81987
425 2 4.06544 13.4963 0.994003
73 1 -0.00158462 18.2976 3.63359
151 2 4.28827 16.4126 0.652748
307 2 3.91463 16.3251 3.35433
317 2 8.86847 18.4205 0.82176
411 2 1.99637 16.6123 1.05446
403 2 4.32359 18.5482 2.01379
120 1 4.86297 14.8635 1.21297
74 1 8.64096 14.1668 4.65764
232 2 7.31183 15.2831 4.42841
136 1 0.957891 16.6684 -0.405518
346 2 6.37291 14.9689 1.50659
443 2 0.392643 12.7289 1.71162
298 2 6.79425 17.491 5.54052
158 2 2.06443 17.3329 9.10234
138 1 5.97001 15.7272 7.67591
137 1 1.21915 13.8544 6.201
289 2 9.41642 15.2124 8.87956
199 2 4.98843 14.6331 5.59685
98 1 8.46097 14.7644 7.73092
168 2 2.23083 17.7467 6.03173
109 1 2.73365 16.4764 7.45169
57 1 7.34302 18.5761 6.9801
395 2 4.40061 16.1913 7.38716
157 2 6.71361 14.3981 8.027
387 2 9.19257 14.2006 6.21167
223 2 1.85664 15.4021 6.75529
164 2 0.331196 14.5676 5.12655
313 2 6.91703 17.0751 7.67271
397 2 4.84082 12.5016 9.2224
37 1 5.99359 16.0876 4.62693
217 2 0.247724 13.4173 7.49208
34 1 4.01568 12.6969 5.32346
428 2 2.7327 13.1005 6.00139
152 2 4.56196 17.8362 9.19303
367 2 2.23384 13.7624 9.27439
28 1 0.783024 12.8227 8.99236
182 2 1.05506 16.3903 11.3403
231 2 8.11901 13.4843 13.4108
8 1 2.96472 12.8019 12.8929
333 2 8.3619 15.7993 11.3762
19 1 6.80322 16.714 11.3177
274 2 3.22392 17.477 12.9439
409 2 2.60046 14.5412 12.8489
188 2 3.73913 14.9776 10.6413
198 2 5.70568 14.2546 13.5545
4 1 6.73524 12.9625 13.9949
262 2 7.59137 18.2633 10.844
42 1 2.58695 15.8786 11.8694
202 2 6.85013 14.0383 10.994
104 1 3.82193 13.5812 9.89088
393 2 5.57187 16.4901 12.3434
84 1 0.6774 17.5588 10.116
5 1 8.17989 14.0415 11.7893
273 2 0.278256 12.8158 10.5774
118 1 8.27337 14.4078 15.742
339 2 2.11033 16.1842 17.6686
114 1 5.17619 15.05 15.0562
222 2 8.16802 15.1698 17.1363
205 2 6.84091 14.0549 15.2592
162 2 1.40758 12.9053 19.0124
326 2 5.97131 16.402 15.9041
108 1 6.99894 16.2837 17.2368
340 2 1.22106 13.7777 16.3443
229 2 7.36097 17.7048 18.0283
192 2 3.74088 15.2227 16.0383
131 1 1.94637 15.3 16.533
256 2 9.14215 15.5998 14.4246
270 2 1.69542 16.8133 15.506
288 2 4.4685 18.8096 14.9225
31 1 3.10727 18.1781 14.6464
142 1 8.26323 18.9882 18.5207
263 2 12.0219 2.46607 2.26712
181 2 16.7806 4.73543 1.82881
297 2 14.8638 3.17272 0.978228
44 1 14.1122 4.25718 -0.336081
3 1 16.3745 3.12569 1.6512
36 1 12.6304 2.37515 3.82345
390 2 13.9619 1.55778 4.03989
382 2 16.18 0.084978 0.254683
311 2 17.0878 1.72817 2.00934
87 1 10.1839 5.86407 3.7451
337 2 13.1402 5.86978 0.156844
122 1 17.7787 0.113364 0.844583
113 1 17.728 2.00095 3.60765
316 2 15.9673 2.56838 3.68708
319 2 10.7892 6.00789 2.32775
290 2 18.5297 3.251 4.31674
268 2 18.573 1.62345 0.0481867
111 1 12.7926 5.62338 5.76346
302 2 15.5463 2.57753 6.43998
396 2 17.6689 0.740084 7.97755
245 2 16.3896 4.76662 5.04577
153 2 10.0071 2.72517 6.5457
258 2 14.159 0.657381 7.61285
235 2 13.507 4.05243 4.90942
371 2 11.897 1.10638 5.18173
203 2 11.5763 0.102456 7.60768
209 2 9.55579 0.774371 4.90058
293 2 11.2912 5.40053 5.1919
324 2 13.5872 2.94761 8.60662
97 1 10.5118 1.15704 6.22632
85 1 15.0123 3.34632 4.86413
140 1 14.773 2.03481 7.91568
119 1 17.636 1.94138 9.24157
272 2 15.9198 2.05852 8.97091
190 2 17.6167 3.5861 8.73276
445 2 17.9944 0.473756 5.22375
70 1 17.7555 4.98669 12.187
436 2 11.5173 1.24623 9.90496
246 2 14.3242 5.92284 12.4836
402 2 13.0595 4.00117 10.6081
133 1 14.6483 0.171377 12.5032
72 1 16.6084 5.04111 9.41363
344 2 15.4808 0.682168 11.1538
261 2 15.004 5.66957 9.71466
338 2 18.549 1.75322 10.4832
67 1 11.9892 -0.277516 10.5089
385 2 17.9634 4.34022 13.6624
384 2 14.9929 1.33647 13.5656
124 1 12.1276 2.8838 9.50866
414 2 16.6543 4.69772 10.8559
65 1 14.0473 5.13523 11.0651
410 2 13.0059 0.139049 11.8789
249 2 10.4886 3.72599 9.84871
239 2 18.5233 3.71701 16.4099
183 2 13.2094 1.52581 16.2545
363 2 11.1013 2.02448 17.2201
112 1 14.6138 5.56793 14.3735
430 2 18.2704 0.421736 15.8123
53 1 9.9254 2.19934 16.1921
154 2 9.68882 0.938874 15.1845
226 2 13.339 3.412 17.8135
11 1 12.6556 1.92542 17.5491
172 2 14.6025 4.03311 14.7269
139 1 16.883 0.580671 16.6642
51 1 14.6605 2.34608 14.9693
291 2 15.0996 5.479 18.6832
424 2 15.7609 1.82303 16.0371
388 2 13.3285 0.987132 18.7283
247 2 19.271 4.04458 19.0222
304 2 10.7831 11.4777 3.53788
92 1 9.31738 11.4339 0.646539
86 1 12.2206 6.69042 1.53099
194 2 11.8861 8.13528 0.692385
62 1 13.2064 11.7225 2.89579
75 1 9.63187 10.375 4.0726
230 2 16.1003 10.2072 2.00622
421 2 12.7563 7.32981 3.01932
241 2 13.1254 11.2645 0.868463
177 2 18.2328 10.8013 3.6649
43 1 16.8885 11.3366 2.85761
101 1 14.3557 6.9005 -0.297217
32 1 13.4632 8.70333 4.05049
211 2 13.4565 10.3949 3.60408
341 2 17.874 7.73876 1.33767
251 2 15.5957 11.6089 3.99541
394 2 15.4409 8.23276 0.288985
259 2 15.3158 8.33871 4.17702
71 1 16.7504 9.1941 0.762026
355 2 10.7431 10.4247 0.373375
17 1 12.3203 9.74781 -0.0906196
206 2 17.8851 7.74792 4.48281
372 2 17.8281 10.5712 0.512583
149 1 10.3583 10.0776 7.24193
284 2 13.3869 8.46238 5.66126
46 1 13.8235 6.9014 8.65912
7 1 15.3947 11.6441 5.70187
353 2 12.2006 10.3844 7.51814
13 1 17.1903 8.15535 7.92041
314 2 18.4835 8.81911 7.2305
343 2 14.636 10.5269 6.53398
446 2 9.88898 10.5228 5.80911
310 2 10.4352 8.44892 7.19748
449 2 16.5135 7.24646 6.68969
50 1 13.644 9.33316 7.11228
201 2 14.2082 8.53914 8.41453
278 2 13.4243 6.27476 7.28353
174 2 9.33668 9.87399 8.82609
77 1 15.984 7.1536 5.13695
365 2 17.1943 6.49148 8.69653
257 2 9.53537 7.47142 9.04674
327 2 14.0817 6.46568 4.98712
96 1 9.77557 8.79783 10.0448
335 2 17.1552 11.4617 10.5525
184 2 15.6572 9.91892 12.1596
103 1 16.1024 10.0361 10.4722
275 2 9.9241 9.23023 14.2457
236 2 11.1586 10.791 11.4388
323 2 13.442 8.55669 13.2354
321 2 12.9936 6.18805 9.85491
125 1 9.60007 9.83605 12.5525
207 2 9.35186 8.60237 11.5922
296 2 14.2755 12.8109 9.70322
412 2 17.4309 6.46285 12.6395
444 2 16.8628 8.90019 14.3206
187 2 16.9161 8.97895 9.25801
80 1 10.9294 9.69267 15.4642
398 2 15.627 12.0432 19.0336
116 1 13.7457 8.33121 16.0513
170 2 16.6188 10.2101 16.8239
225 2 14.0051 7.87643 17.6471
185 2 13.9321 6.61696 15.3636
429 2 13.2591 10.4574 18.0474
447 2 18.4626 11.7582 17.869
48 1 15.9645 10.3617 15.2978
308 2 16.2853 6.75655 14.9244
179 2 19.0578 7.35115 14.8602
22 1 17.2904 7.34386 14.1254
233 2 9.75886 9.55787 16.6335
347 2 11.6642 11.3299 15.2574
215 2 12.1424 8.74281 16.0628
100 1 17.2057 11.6061 18.8187
94 1 13.8739 11.855 18.7413
420 2 14.3381 9.89784 15.4556
440 2 9.74298 16.1695 0.831552
40 1 14.2833 16.8602 2.18131
123 1 11.7987 14.5228 3.68189
52 1 18.3574 13.7245 1.58843
221 2 17.6219 13.5256 0.220931
76 1 12.4386 17.589 4.58444
155 2 13.1005 17.4933 3.10635
301 2 15.4838 17.2544 3.25092
318 2 10.7522 17.6091 3.73529
399 2 14.5521 15.2684 1.94588
375 2 18.6464 15.2007 2.63585
69 1 10.7582 15.0174 0.473803
160 2 14.1024 17.3304 0.345005
61 1 18.3559 15.3878 4.40648
322 2 12.7339 13.2109 3.79397
358 2 11.7146 15.0631 1.89043
276 2 18.3791 17.1968 4.22148
364 2 11.6021 18.1612 0.778357
380 2 10.0387 14.3343 3.75934
135 1 13.2013 18.7426 -0.118087
20 1 10.1433 17.655 1.72627
325 2 19.1029 18.1379 0.211713
282 2 12.1319 15.0863 -0.331599
243 2 18.3292 19.1249 2.61592
166 2 17.1927 12.9623 2.298
357 2 17.1047 15.1276 7.47943
417 2 12.9484 16.341 7.32428
33 1 16.1699 14.5784 6.27371
426 2 13.0788 14.0327 7.95639
128 1 17.1163 16.4875 8.51856
416 2 12.2018 15.6218 4.7782
303 2 14.5141 14.2713 6.29834
82 1 12.8522 15.1297 6.47462
383 2 17.4043 17.5885 7.30147
178 2 12.8198 18.3053 5.9592
404 2 16.7458 15.0646 4.78384
147 1 13.1297 18.5316 7.45225
63 1 18.0814 19.2223 6.72204
200 2 16.3485 12.7655 6.52784
121 1 17.7741 12.8459 11.2621
342 2 17.4772 14.5754 10.7943
240 2 9.67058 18.0585 13.6723
237 2 12.0443 12.6883 10.4159
437 2 10.8686 16.1728 12.4416
366 2 14.479 15.3692 10.8989
433 2 15.9625 17.3541 9.4025
350 2 15.2504 17.8195 12.1605
143 1 14.9855 16.876 10.7961
81 1 10.402 16.4396 13.8692
126 1 10.1465 15.964 10.3941
26 1 13.0319 13.6763 9.50013
193 2 10.1854 17.7278 10.411
285 2 9.67965 13.4157 11.177
189 2 11.8257 15.703 9.8989
373 2 10.7112 12.9758 13.433
210 2 18.4292 16.8173 9.44096
329 2 12.8697 18.0545 9.61509
330 2 18.7739 12.4498 12.6802
21 1 11.0005 12.3663 11.7171
377 2 11.971 16.9233 14.8194
266 2 13.0198 17.9203 17.629
349 2 9.7661 13.8902 16.1353
255 2 13.5238 13.1418 17.7043
180 2 15.0323 18.2931 17.318
25 1 12.7564 17.0731 16.3209
432 2 17.2549 18.4468 17.5716
312 2 17.5157 14.8922 16.0016
6 1 16.0441 17.8846 18.5698
146 1 13.5064 14.6389 18.1404
93 1 17.7364 14.742 17.6421
167 2 16.4361 15.913 18.1645
381 2 13.4599 15.5975 16.7025
213 2 18.999 15.7638 18.3463
129 1 10.7354 12.8247 15.1034
442 2 9.83117 12.5682 19.0915
ITEM: TIMESTEP
200000
ITEM: NUMBER OF ATOMS
450
ITEM: BOX BOUNDS pp pp pp
-2.8620257470594268e-01 1.9011627724855170e+01
-2.8620257470594268e-01 1.9011627724855170e+01
-2.8620257470594268e-01 1.9011627724855170e+01
ITEM: ATOMS id type x y z
388 2 0.133929 3.26017 2.92086
381 2 5.29401 1.81812 1.82294
223 2 -0.0636059 0.619932 3.62732
328 2 6.3501 4.71689 1.45676
353 2 0.479318 6.04466 1.31881
116 1 3.17136 3.68151 3.69906
274 2 4.79878 4.14209 2.98638
297 2 0.0585258 3.69214 0.599361
434 2 4.42185 0.367151 3.88656
35 1 5.64396 3.39091 1.55607
364 2 9.38274 5.42474 3.81495
153 2 2.4253 4.57675 2.18007
98 1 0.922429 4.44623 1.89249
39 1 5.26554 0.138947 2.04702
179 2 1.88895 2.63153 3.35078
60 1 0.143705 2.16345 4.31785
345 2 4.96866 3.51237 0.140232
419 2 2.94694 5.02825 4.4822
331 2 4.90547 1.83188 7.03356
214 2 5.33609 3.34803 9.19696
257 2 6.25906 -0.143504 5.30053
435 2 2.68609 4.17528 8.94481
67 1 4.2116 1.35185 5.48467
398 2 7.24162 2.03446 8.69043
404 2 8.8828 0.512475 7.47835
65 1 0.727432 3.91667 8.36887
28 1 8.88581 1.98454 8.28743
55 1 0.591713 1.03712 7.53079
275 2 0.837206 2.26186 8.67579
318 2 4.03105 2.77981 4.87418
335 2 3.14326 0.0987436 6.02134
13 1 5.63176 1.99317 8.50776
227 2 0.860727 1.90822 6.08504
414 2 9.04653 3.70772 8.20742
211 2 0.908935 5.54697 8.29518
204 2 3.82411 4.12667 11.1998
4 1 5.40051 2.61339 13.5401
340 2 9.21293 2.29456 12.8983
423 2 8.17682 3.17871 10.5462
106 1 0.602742 0.556663 11.7067
198 2 1.21429 3.91527 11.2528
71 1 2.86328 3.01283 11.754
356 2 2.29271 1.57058 11.1516
89 1 4.09137 4.35983 9.55343
334 2 5.03663 6.22337 13.6609
149 1 7.89357 2.18433 11.9503
235 2 3.80798 3.00005 13.28
80 1 0.169216 5.16564 11.9557
418 2 8.66485 5.75129 10.3023
84 1 8.8843 4.33894 9.78251
241 2 4.47295 0.809627 9.74145
187 2 6.25159 2.61012 12.2201
126 1 2.96529 0.0857319 9.88499
401 2 8.38788 0.706289 10.948
439 2 1.70657 0.0680327 12.8718
249 2 4.05584 5.88965 9.77468
88 1 3.79958 1.10354 16.1646
192 2 4.85317 1.54216 14.843
392 2 2.90294 0.0133591 15.4505
38 1 4.373 3.55838 17.7462
123 1 8.94589 5.93233 15.1087
181 2 9.29714 1.92621 17.5567
129 1 9.20005 3.33277 16.8582
261 2 3.40169 2.44965 17.0607
159 2 5.47647 4.1694 16.6305
135 1 5.7368 5.29397 15.094
448 2 3.20917 4.86456 17.7303
190 2 8.84894 4.38508 15.6653
278 2 7.18514 5.85258 15.0002
231 2 4.97972 0.695391 17.2209
268 2 1.79686 4.87533 15.1879
376 2 0.509747 0.74625 15.6185
337 2 0.844308 5.73193 17.9714
68 1 1.86473 5.74956 16.6902
313 2 6.06457 3.99082 14.1145
430 2 6.20461 12.0932 2.07573
422 2 4.03062 10.3977 3.31204
31 1 -0.235922 10.131 3.18893
238 2 6.43022 9.70454 0.308865
333 2 9.08892 10.8303 0.781632
400 2 3.73238 8.97751 0.808457
174 2 7.10379 6.92519 2.43785
46 1 5.3881 11.3276 3.51432